# vtk DataFile Version 2.0
sampleSurface
ASCII
DATASET POLYDATA
POINTS 137 double
25.01 7.26 4.99
24.43 9.63 7.46
21.53 20.27 11.51
24.6 9.19 7.69
25.57 5.83 3.07
26.47 23.97 2.51
26.26 5.47 2.01
21.63 21.22 11.05
26.28 4.58 2.65
28.01 4.83 16.28
26.91 4.62 7.21
27.54 3.96 5.49
25.35 7.33 9.09
25.89 5.25 5.02
26.77 23.87 2.12
26.79 24.11 2.24
29.18 3.85 1.97
29.38 3.66 2.16
26.64 4.42 2.75
28.6 4.3 13.81
21.98 22.04 10.94
22.66 22.72 10.35
22.59 22.96 11
27.02 23.77 1.96
27.48 24.48 2.08
26.6 24.38 4.45
37.06 3.26 1.96
33.99 2.03 10.31
36.06 1.84 4.32
34.85 1.55 5.22
21.68 21.28 12.56
26.82 6.74 16.4
37.16 24.14 1.97
28.69 24.22 1.97
28.7 24.58 1.97
28.57 26.62 12.57
37.13 3.31 1.95
38.06 3.46 2.18
34.76 3.59 17.45
34.69 1.98 10.52
38.09 1.7 7.93
27.54 25.21 15.22
29.04 26.71 13.85
21.75 20.63 12.83
29.32 24.64 2.02
28.39 25.53 15.62
36.32 28.6 6.03
32.39 4.48 18.57
38.03 1.6 8.19
35.46 2.92 14.82
38.28 1.9 8.1
30.84 6.56 19.77
33.09 5.62 19.91
31.85 6.32 20.03
23.02 21.04 14.03
28.7 24.7 16.79
38.37 27.29 4.64
29.1 26.34 14.69
35.99 28.6 6.44
40.99 6.98 5.5
37.55 23.73 1.99
39.4 26.06 4.04
37.82 23.03 1.98
41.55 10.33 2.85
35.24 3.68 17.71
36.7 2.66 13.74
37.57 2.06 11.31
39.73 3.82 9.31
34.14 5.3 19.77
34.17 6.66 20.81
28.25 24.37 16.7
25.84 21.44 16.52
30.86 7.66 19.96
35.25 27.39 13.8
38.59 27.76 5.23
37.96 28.88 9.06
40.72 6.64 8.41
40.07 6.66 3.25
37.38 4.85 1.97
38.1 5.66 19.51
40.81 7.13 9.07
31.78 6.76 20.26
30.59 24.37 17.42
28.99 24.05 17.43
31.48 8.6 20.48
35.67 25.68 16.23
38.45 28.4 6.55
41.81 25.38 5.96
39.02 3.58 11.49
39.86 7.39 17.36
36.8 6.71 20.7
35.11 7.57 21.4
37.05 26.41 15.12
38.01 27.01 13.81
34.85 24.09 17.34
39.62 27.6 6.75
41.7 10.64 8.16
41.72 10.62 3.56
35.68 5.75 19.98
40.07 8.16 17.35
39.58 6.83 18.13
35.33 8.23 21.61
34.21 21.99 18.27
35.06 22.52 18.03
35.38 12.48 21.65
29.01 22.65 17.84
38.72 24.9 15.26
37.57 23.98 16.68
39.37 26.3 13.19
39.64 27.98 8.11
40.78 26.3 11.4
38.81 6.48 19.69
39.72 7.88 19.23
35.11 11.6 21.79
36.75 13.33 21
37 14.44 20.53
39.01 24.55 15.27
40.06 9.41 19.68
38.6 8.38 20.62
35.63 10.65 21.86
37.78 12.26 20.85
39.45 23.69 15.45
37.64 10.8 21.06
32.25 14.95 0
31.07 14.95 0
31.66 15.96 0
32.84 15.96 0
33.43 14.95 0
32.84 13.93 0
31.66 13.93 0
31.66 15.96 5.06
31.07 14.95 5.06
32.84 15.96 5.06
33.43 14.95 5.06
32.84 13.93 5.06
31.66 13.93 5.06
32.25 14.95 5.06

POLYGONS 266 1064
3 0 1 2
3 0 3 1
3 4 5 6
3 7 5 4
3 2 4 0
3 2 1 3
3 6 8 4
3 9 10 11
3 11 10 8
3 12 3 0
3 0 4 13
3 14 6 5
3 5 15 14
3 6 16 8
3 8 16 17
3 17 18 8
3 9 11 19
3 11 8 18
3 5 20 21
3 21 22 5
3 20 5 7
3 2 7 4
3 3 12 2
3 4 8 13
3 9 8 10
3 0 13 12
3 23 6 14
3 14 15 24
3 15 5 25
3 5 22 25
3 6 23 16
3 17 16 26
3 19 27 9
3 26 28 17
3 18 17 29
3 19 11 27
3 11 18 29
3 21 20 22
3 7 30 20
3 30 7 2
3 12 31 2
3 9 13 8
3 31 12 13
3 32 33 34
3 24 23 14
3 33 23 34
3 25 24 15
3 25 22 35
3 23 33 32
3 23 36 16
3 26 16 36
3 37 28 26
3 27 38 9
3 29 17 28
3 29 27 11
3 38 27 39
3 40 28 37
3 30 22 20
3 41 42 22
3 2 43 30
3 2 31 43
3 9 31 13
3 34 44 32
3 45 42 41
3 34 23 24
3 44 34 46
3 35 24 25
3 22 42 35
3 32 36 23
3 26 36 37
3 38 47 9
3 28 48 29
3 39 27 29
3 49 38 39
3 48 28 40
3 37 50 40
3 9 47 51
3 52 53 47
3 22 30 41
3 30 43 54
3 41 55 45
3 43 31 54
3 51 31 9
3 44 56 32
3 57 42 45
3 56 44 46
3 46 34 24
3 35 58 24
3 42 58 35
3 59 50 37
3 60 32 61
3 62 32 60
3 32 62 36
3 37 36 63
3 47 38 64
3 29 48 39
3 65 64 38
3 65 38 49
3 39 66 49
3 59 67 50
3 40 50 48
3 52 47 68
3 69 53 52
3 47 53 51
3 30 70 41
3 54 71 30
3 45 55 57
3 41 70 55
3 54 31 71
3 51 72 31
3 32 56 61
3 42 57 73
3 46 74 56
3 24 58 46
3 75 58 42
3 67 59 76
3 77 59 37
3 37 63 77
3 61 62 60
3 62 78 36
3 36 78 63
3 68 47 64
3 48 66 39
3 64 65 79
3 49 66 65
3 76 80 67
3 48 50 67
3 68 69 52
3 81 53 69
3 53 81 51
3 71 70 30
3 82 57 55
3 70 83 55
3 72 71 31
3 51 84 72
3 85 73 57
3 57 82 85
3 56 74 61
3 42 73 75
3 46 86 74
3 58 75 46
3 59 80 76
3 63 59 77
3 62 61 87
3 78 62 63
3 68 64 79
3 88 66 48
3 79 65 66
3 89 67 80
3 67 88 48
3 90 69 68
3 91 81 69
3 51 81 84
3 83 70 71
3 55 83 82
3 71 72 84
3 73 92 93
3 92 73 85
3 85 82 94
3 95 74 86
3 87 61 74
3 75 73 93
3 46 75 86
3 80 59 96
3 63 97 59
3 63 62 87
3 98 90 68
3 68 79 98
3 66 88 79
3 80 99 89
3 67 89 100
3 100 88 67
3 69 90 91
3 101 81 91
3 82 102 103
3 82 104 102
3 101 84 81
3 71 105 83
3 83 104 82
3 84 105 71
3 93 92 106
3 107 92 85
3 103 94 82
3 85 94 107
3 108 93 106
3 86 109 95
3 87 74 95
3 93 110 75
3 109 86 75
3 80 96 99
3 59 97 96
3 97 63 87
3 98 79 90
3 79 88 111
3 89 99 112
3 100 89 112
3 100 111 88
3 91 90 101
3 103 102 104
3 84 101 113
3 105 104 83
3 113 105 84
3 106 92 107
3 103 107 94
3 114 115 103
3 110 93 108
3 106 116 108
3 95 109 87
3 75 110 109
3 117 99 96
3 87 96 97
3 111 90 79
3 112 99 117
3 112 111 100
3 101 90 118
3 104 114 103
3 119 113 101
3 104 105 113
3 107 116 106
3 115 114 120
3 103 115 107
3 108 116 110
3 109 110 87
3 87 117 96
3 118 90 111
3 117 111 112
3 119 101 118
3 114 104 120
3 104 113 119
3 121 116 107
3 120 107 115
3 116 121 110
3 110 117 87
3 118 111 117
3 118 122 119
3 119 120 104
3 120 121 107
3 117 110 121
3 117 122 118
3 122 120 119
3 121 120 117
3 117 120 122
3 123 124 125
3 123 125 126
3 123 126 127
3 123 127 128
3 123 128 129
3 123 129 124
3 124 130 125
3 124 131 130
3 125 132 126
3 125 130 132
3 126 133 127
3 126 132 133
3 127 134 128
3 127 133 134
3 128 135 129
3 128 134 135
3 129 131 124
3 129 135 131
3 136 130 131
3 136 132 130
3 136 133 132
3 136 134 133
3 136 135 134
3 136 131 135
CELL_DATA 266
FIELD attributes 1
zone 1 266 float
0 0 0 0 0 0 0 0 0 0
0 0 0 0 0 0 0 0 0 0
0 0 0 0 0 0 0 0 0 0
0 0 0 0 0 0 0 0 0 0
0 0 0 0 0 0 0 0 0 0
0 0 0 0 0 0 0 0 0 0
0 0 0 0 0 0 0 0 0 0
0 0 0 0 0 0 0 0 0 0
0 0 0 0 0 0 0 0 0 0
0 0 0 0 0 0 0 0 0 0
0 0 0 0 0 0 0 0 0 0
0 0 0 0 0 0 0 0 0 0
0 0 0 0 0 0 0 0 0 0
0 0 0 0 0 0 0 0 0 0
0 0 0 0 0 0 0 0 0 0
0 0 0 0 0 0 0 0 0 0
0 0 0 0 0 0 0 0 0 0
0 0 0 0 0 0 0 0 0 0
0 0 0 0 0 0 0 0 0 0
0 0 0 0 0 0 0 0 0 0
0 0 0 0 0 0 0 0 0 0
0 0 0 0 0 0 0 0 0 0
0 0 0 0 0 0 0 0 0 0
0 0 0 0 0 0 0 0 0 0
0 0 1 1 1 1 1 1 1 1
1 1 1 1 1 1 1 1 1 1
1 1 1 1 1 1
