# vtk DataFile Version 2.0
sampleSurface
ASCII
DATASET POLYDATA
POINTS 43634 double
-9.86865e-17 0.34375 1.75
-8.63507e-17 -0.941406 1.75
1.3125 0.34375 1.75
-1.3125 0.34375 1.75
-1.3125 -0.941406 1.75
1.3125 -0.941406 1.75
-9.86865e-17 1.62891 1.75
1.3125 1.62891 1.75
-1.3125 1.62891 1.75
-7.40149e-17 -2.22656 1.75
-1.3125 -2.22656 1.75
1.3125 -2.22656 1.75
2.625 0.34375 1.75
-2.625 0.34375 1.75
-2.625 -0.941406 1.75
2.625 -0.941406 1.75
-9.86865e-17 2.91406 1.75
2.625 1.62891 1.75
-2.625 1.62891 1.75
1.3125 2.91406 1.75
-1.3125 2.91406 1.75
-2.625 -2.22656 1.75
2.625 -2.22656 1.75
-6.16791e-17 -3.51172 1.75
-1.3125 -3.51172 1.75
1.3125 -3.51172 1.75
2.625 2.91406 1.75
-2.625 2.91406 1.75
3.9375 0.34375 1.75
-3.9375 0.34375 1.75
-3.9375 -0.941406 1.75
3.9375 -0.941406 1.75
-9.86865e-17 4.19922 1.75
3.9375 1.62891 1.75
-3.9375 1.62891 1.75
-2.625 -3.51172 1.75
2.625 -3.51172 1.75
1.3125 4.19922 1.75
-1.3125 4.19922 1.75
-3.9375 -2.22656 1.75
3.9375 -2.22656 1.75
-4.93432e-17 -4.79688 1.75
3.9375 2.91406 1.75
-3.9375 2.91406 1.75
2.625 4.19922 1.75
-2.625 4.19922 1.75
1.3125 -4.79688 1.75
-1.3125 -4.79688 1.75
-5.25 0.34375 1.75
5.25 0.34375 1.75
-3.9375 -3.51172 1.75
3.9375 -3.51172 1.75
-5.25 -0.941406 1.75
5.25 -0.941406 1.75
2.625 -4.79688 1.75
-2.625 -4.79688 1.75
-9.86865e-17 5.48438 1.75
-5.25 1.62891 1.75
5.25 1.62891 1.75
1.3125 5.48438 1.75
-1.3125 5.48438 1.75
-5.25 -2.22656 1.75
5.25 -2.22656 1.75
3.9375 4.19922 1.75
-3.9375 4.19922 1.75
-5.25 2.91406 1.75
5.25 2.91406 1.75
2.625 5.48438 1.75
-2.625 5.48438 1.75
-3.70074e-17 -6.08203 1.75
3.9375 -4.79688 1.75
-3.9375 -4.79688 1.75
1.3125 -6.08203 1.75
-1.3125 -6.08203 1.75
-5.25 -3.51172 1.75
5.25 -3.51172 1.75
6.5625 0.34375 1.75
-6.5625 0.34375 1.75
2.625 -6.08203 1.75
-2.625 -6.08203 1.75
-6.5625 -0.941406 1.75
6.5625 -0.941406 1.75
-5.25 4.19922 1.75
5.25 4.19922 1.75
3.9375 5.48438 1.75
-3.9375 5.48438 1.75
6.5625 1.62891 1.75
-6.5625 1.62891 1.75
-9.86865e-17 6.76953 1.75
-1.3125 6.76953 1.75
1.3125 6.76953 1.75
-6.5625 -2.22656 1.75
6.5625 -2.22656 1.75
-5.25 -4.79688 1.75
5.25 -4.79688 1.75
6.5625 2.91406 1.75
-6.5625 2.91406 1.75
3.9375 -6.08203 1.75
-3.9375 -6.08203 1.75
-2.625 6.76953 1.75
2.625 6.76953 1.75
-2.46716e-17 -7.36719 1.75
-6.5625 -3.51172 1.75
6.5625 -3.51172 1.75
-1.3125 -7.36719 1.75
1.3125 -7.36719 1.75
-5.25 5.48438 1.75
5.25 5.48438 1.75
-6.5625 4.19922 1.75
6.5625 4.19922 1.75
2.625 -7.36719 1.75
-2.625 -7.36719 1.75
-3.9375 6.76953 1.75
3.9375 6.76953 1.75
7.875 0.34375 1.75
-7.875 0.34375 1.75
7.875 -0.941406 1.75
-7.875 -0.941406 1.75
-5.25 -6.08203 1.75
5.25 -6.08203 1.75
7.875 1.62891 1.75
-7.875 1.62891 1.75
-9.86865e-17 8.05469 1.75
-6.5625 -4.79688 1.75
6.5625 -4.79688 1.75
-1.3125 8.05469 1.75
1.3125 8.05469 1.75
-7.875 -2.22656 1.75
7.875 -2.22656 1.75
3.9375 -7.36719 1.75
-3.9375 -7.36719 1.75
-7.875 2.91406 1.75
7.875 2.91406 1.75
-2.625 8.05469 1.75
2.625 8.05469 1.75
-6.5625 5.48438 1.75
6.5625 5.48438 1.75
-5.25 6.76953 1.75
5.25 6.76953 1.75
-7.875 -3.51172 1.75
7.875 -3.51172 1.75
-1.23358e-17 -8.65234 1.75
1.3125 -8.65234 1.75
-1.3125 -8.65234 1.75
-7.875 4.19922 1.75
7.875 4.19922 1.75
-6.5625 -6.08203 1.75
6.5625 -6.08203 1.75
-3.9375 8.05469 1.75
3.9375 8.05469 1.75
2.625 -8.65234 1.75
-2.625 -8.65234 1.75
-5.25 -7.36719 1.75
5.25 -7.36719 1.75
-9.1875 0.34375 1.75
9.1875 0.34375 1.75
-7.875 -4.79688 1.75
7.875 -4.79688 1.75
-9.1875 -0.941406 1.75
9.1875 -0.941406 1.75
-9.1875 1.62891 1.75
9.1875 1.62891 1.75
-9.86865e-17 9.33984 1.75
6.5625 6.76953 1.75
-6.5625 6.76953 1.75
-1.3125 9.33984 1.75
1.3125 9.33984 1.75
-9.1875 -2.22656 1.75
9.1875 -2.22656 1.75
3.9375 -8.65234 1.75
-3.9375 -8.65234 1.75
-7.875 5.48438 1.75
7.875 5.48438 1.75
-5.25 8.05469 1.75
5.25 8.05469 1.75
-9.1875 2.91406 1.75
9.1875 2.91406 1.75
-2.625 9.33984 1.75
2.625 9.33984 1.75
-9.1875 -3.51172 1.75
9.1875 -3.51172 1.75
6.5625 -7.36719 1.75
-6.5625 -7.36719 1.75
0 -9.9375 1.75
7.875 -6.08203 1.75
-7.875 -6.08203 1.75
1.3125 -9.9375 1.75
-1.3125 -9.9375 1.75
-9.1875 4.19922 1.75
9.1875 4.19922 1.75
-5.25 -8.65234 1.75
5.25 -8.65234 1.75
-3.9375 9.33984 1.75
3.9375 9.33984 1.75
2.625 -9.9375 1.75
-2.625 -9.9375 1.75
-9.1875 -4.79688 1.75
9.1875 -4.79688 1.75
-7.875 6.76953 1.75
7.875 6.76953 1.75
6.5625 8.05469 1.75
-6.5625 8.05469 1.75
10.5 0.34375 1.75
-10.5 0.34375 1.75
-10.5 -0.941406 1.75
10.5 -0.941406 1.75
-9.86865e-17 10.625 1.75
10.5 1.62891 1.75
-10.5 1.62891 1.75
3.9375 -9.9375 1.75
-3.9375 -9.9375 1.75
-9.1875 5.48438 1.75
9.1875 5.48438 1.75
1.3125 10.625 1.75
-1.3125 10.625 1.75
-5.25 9.33984 1.75
5.25 9.33984 1.75
-10.5 -2.22656 1.75
10.5 -2.22656 1.75
-7.875 -7.36719 1.75
7.875 -7.36719 1.75
6.5625 -8.65234 1.75
-6.5625 -8.65234 1.75
10.5 2.91406 1.75
-10.5 2.91406 1.75
2.625 10.625 1.75
-2.625 10.625 1.75
9.1875 -6.08203 1.75
-9.1875 -6.08203 1.75
-10.5 -3.51172 1.75
10.5 -3.51172 1.75
-2.46716e-17 -11.2227 1.75
-5.25 -9.9375 1.75
5.25 -9.9375 1.75
7.875 8.05469 1.75
-7.875 8.05469 1.75
-1.3125 -11.2227 1.75
1.3125 -11.2227 1.75
10.5 4.19922 1.75
-10.5 4.19922 1.75
3.9375 10.625 1.75
-3.9375 10.625 1.75
-9.1875 6.76953 1.75
9.1875 6.76953 1.75
-6.5625 9.33984 1.75
6.5625 9.33984 1.75
-2.625 -11.2227 1.75
2.625 -11.2227 1.75
-10.5 -4.79688 1.75
10.5 -4.79688 1.75
-7.875 -8.65234 1.75
7.875 -8.65234 1.75
-11.7611 0.34375 1.75
-9.1875 -7.36719 1.75
9.1875 -7.36719 1.75
-11.7611 -0.941406 1.75
11.8125 0.34375 1.75
10.5 5.48438 1.75
-10.5 5.48438 1.75
11.8125 -0.941406 1.75
-5.25 10.625 1.75
5.25 10.625 1.75
-11.7611 1.62891 1.75
-3.9375 -11.2227 1.75
3.9375 -11.2227 1.75
-6.5625 -9.9375 1.75
6.5625 -9.9375 1.75
-8.63507e-17 11.9102 1.75
11.8125 1.62891 1.75
-11.7611 -2.22656 1.75
1.3125 11.9102 1.75
-1.3125 11.9102 1.75
11.8125 -2.22656 1.75
-11.7611 2.91406 1.75
-10.5 -6.08203 1.75
10.5 -6.08203 1.75
11.8125 2.91406 1.75
2.625 11.9102 1.75
-2.625 11.9102 1.75
7.875 9.33984 1.75
-7.875 9.33984 1.75
-9.1875 8.05469 1.75
9.1875 8.05469 1.75
-11.7611 -3.51172 1.75
11.8125 -3.51172 1.75
-5.25 -11.2227 1.75
5.25 -11.2227 1.75
-6.5625 10.625 1.75
6.5625 10.625 1.75
-11.7611 4.19922 1.75
10.5 6.76953 1.75
-10.5 6.76953 1.75
-4.93432e-17 -12.5078 1.75
11.8125 4.19922 1.75
3.9375 11.9102 1.75
-3.9375 11.9102 1.75
-1.3125 -12.5078 1.75
1.3125 -12.5078 1.75
9.1875 -8.65234 1.75
-9.1875 -8.65234 1.75
-7.875 -9.9375 1.75
7.875 -9.9375 1.75
-11.7611 -4.79688 1.75
11.8125 -4.79688 1.75
-2.625 -12.5078 1.75
2.625 -12.5078 1.75
-10.5 -7.36719 1.75
10.5 -7.36719 1.75
-11.7611 5.48438 1.75
6.5625 -11.2227 1.75
-6.5625 -11.2227 1.75
-5.25 11.9102 1.75
5.25 11.9102 1.75
11.8125 5.48438 1.75
-13.0222 0.34375 1.75
-13.0222 -0.941406 1.75
-9.1875 9.33984 1.75
9.1875 9.33984 1.75
3.9375 -12.5078 1.75
-3.9375 -12.5078 1.75
-13.0222 1.62891 1.75
13.125 0.34375 1.75
13.125 -0.941406 1.75
-7.40149e-17 13.1953 1.75
-13.0222 -2.22656 1.75
7.875 10.625 1.75
-7.875 10.625 1.75
13.125 1.62891 1.75
10.5 8.05469 1.75
-10.5 8.05469 1.75
-11.7611 -6.08203 1.75
1.3125 13.1953 1.75
-1.3125 13.1953 1.75
11.8125 -6.08203 1.75
13.125 -2.22656 1.75
-13.0222 2.91406 1.75
13.125 2.91406 1.75
2.625 13.1953 1.75
-2.625 13.1953 1.75
-13.0222 -3.51172 1.75
-9.1875 -9.9375 1.75
9.1875 -9.9375 1.75
5.25 -12.5078 1.75
-5.25 -12.5078 1.75
-11.7611 6.76953 1.75
13.125 -3.51172 1.75
-6.5625 11.9102 1.75
6.5625 11.9102 1.75
-10.5 -8.65234 1.75
10.5 -8.65234 1.75
11.8125 6.76953 1.75
-13.0222 4.19922 1.75
-7.875 -11.2227 1.75
7.875 -11.2227 1.75
3.9375 13.1953 1.75
-3.9375 13.1953 1.75
13.125 4.19922 1.75
-7.40149e-17 -13.793 1.75
-1.3125 -13.793 1.75
1.3125 -13.793 1.75
-13.0222 -4.79688 1.75
-11.7611 -7.36719 1.75
11.8125 -7.36719 1.75
13.125 -4.79688 1.75
-2.625 -13.793 1.75
2.625 -13.793 1.75
-9.1875 10.625 1.75
9.1875 10.625 1.75
10.5 9.33984 1.75
-10.5 9.33984 1.75
-6.5625 -12.5078 1.75
6.5625 -12.5078 1.75
-13.0222 5.48438 1.75
-5.25 13.1953 1.75
5.25 13.1953 1.75
13.125 5.48438 1.75
-11.7611 8.05469 1.75
-7.875 11.9102 1.75
7.875 11.9102 1.75
-14.2833 0.34375 1.75
11.8125 8.05469 1.75
-14.2833 -0.941406 1.75
3.9375 -13.793 1.75
-3.9375 -13.793 1.75
-13.0222 -6.08203 1.75
-14.2833 1.62891 1.75
14.4375 0.34375 1.75
-14.2833 -2.22656 1.75
-10.5 -9.9375 1.75
10.5 -9.9375 1.75
13.125 -6.08203 1.75
14.4375 -0.941406 1.75
-6.16791e-17 14.4805 1.75
-9.1875 -11.2227 1.75
9.1875 -11.2227 1.75
14.4375 1.62891 1.75
1.3125 14.4805 1.75
-1.3125 14.4805 1.75
-14.2833 2.91406 1.75
-11.7611 -8.65234 1.75
14.4375 -2.22656 1.75
11.8125 -8.65234 1.75
-13.0222 6.76953 1.75
-14.2833 -3.51172 1.75
2.625 14.4805 1.75
-2.625 14.4805 1.75
14.4375 2.91406 1.75
-6.5625 13.1953 1.75
6.5625 13.1953 1.75
5.25 -13.793 1.75
-5.25 -13.793 1.75
13.125 6.76953 1.75
-7.875 -12.5078 1.75
7.875 -12.5078 1.75
14.4375 -3.51172 1.75
-14.2833 4.19922 1.75
10.5 10.625 1.75
-10.5 10.625 1.75
-13.0222 -7.36719 1.75
3.9375 14.4805 1.75
-3.9375 14.4805 1.75
-11.7611 9.33984 1.75
14.4375 4.19922 1.75
9.1875 11.9102 1.75
-9.1875 11.9102 1.75
13.125 -7.36719 1.75
11.8125 9.33984 1.75
-14.2833 -4.79688 1.75
-9.86865e-17 -15.0781 1.75
1.3125 -15.0781 1.75
-1.3125 -15.0781 1.75
14.4375 -4.79688 1.75
-6.5625 -13.793 1.75
6.5625 -13.793 1.75
-14.2833 5.48438 1.75
2.625 -15.0781 1.75
-2.625 -15.0781 1.75
-13.0222 8.05469 1.75
-7.875 13.1953 1.75
7.875 13.1953 1.75
-10.5 -11.2227 1.75
10.5 -11.2227 1.75
-11.7611 -9.9375 1.75
13.125 8.05469 1.75
5.25 14.4805 1.75
-5.25 14.4805 1.75
11.8125 -9.9375 1.75
14.4375 5.48438 1.75
9.1875 -12.5078 1.75
-9.1875 -12.5078 1.75
-14.2833 -6.08203 1.75
-15.5445 0.34375 1.75
-15.5445 -0.941406 1.75
-3.9375 -15.0781 1.75
3.9375 -15.0781 1.75
-15.5445 1.62891 1.75
-13.0222 -8.65234 1.75
14.4375 -6.08203 1.75
-15.5445 -2.22656 1.75
13.125 -8.65234 1.75
15.75 0.34375 1.75
-4.93432e-17 15.7656 1.75
15.75 -0.941406 1.75
-14.2833 6.76953 1.75
-15.5445 2.91406 1.75
1.3125 15.7656 1.75
-1.3125 15.7656 1.75
15.75 1.62891 1.75
-11.7611 10.625 1.75
10.5 11.9102 1.75
-10.5 11.9102 1.75
7.875 -13.793 1.75
-7.875 -13.793 1.75
11.8125 10.625 1.75
-6.5625 14.4805 1.75
6.5625 14.4805 1.75
[...]
POINT_DATA 43634
FIELD attributes 1
epsilon 1 43634 float
0.0374637 0.037668 0.0375654 0.0373997 0.0375978 0.0377434 0.0372708 0.0373812 0.0372131 0.0378759
0.0378147 0.0379254 0.0376564 0.0373673 0.0375678 0.0378126 0.0370938 0.0375097 0.0371635 0.0371966
0.0370258 0.0377741 0.0379965 0.0380804 0.0380396 0.03812 0.0373529 0.036957 0.0377696 0.0373288
0.0375476 0.0379384 0.0369263 0.0376313 0.0371145 0.0379923 0.0382008 0.0370261 0.0368345 0.0377624
0.0381243 0.0382846 0.0375154 0.0369137 0.0371862 0.0367588 0.0383308 0.0382606 0.0372942 0.0379594
0.0379753 0.0383074 0.0375132 0.0381114 0.0384095 0.0382231 0.0367597 0.0370905 0.0378167 0.0368774
0.0366462 0.0377431 0.0382564 0.0373984 0.036725 0.0368951 0.0377053 0.037031 0.0365766 0.0385
0.0384806 0.0381956 0.0385559 0.0384773 0.0379708 0.0383983 0.0381888 0.0372876 0.0386144 0.0384585
0.0374967 0.0382814 0.0366981 0.0376268 0.0372722 0.0365402 0.0380955 0.0370844 0.0365884 0.0364684
0.0367375 0.0377191 0.0383898 0.0381916 0.0385519 0.0380034 0.0368752 0.0386594 0.0384299 0.0364041
0.0368988 0.0387343 0.0379511 0.0385231 0.0387002 0.038787 0.0364953 0.0375661 0.0366628 0.0379344
0.0388198 0.0386905 0.0363505 0.0371441 0.0384309 0.0372897 0.0384928 0.0375023 0.0384146 0.0387333
0.0384089 0.0370714 0.0364169 0.0381857 0.038679 0.0363031 0.0365942 0.0377142 0.0385944 0.0388624
0.0386751 0.0368527 0.038401 0.0362305 0.0367873 0.0364586 0.0379115 0.0362942 0.0374989 0.0379357
0.0387104 0.0389788 0.0390131 0.0389377 0.0366438 0.0383938 0.0384164 0.0388526 0.0361564 0.0370341
0.0390342 0.0389217 0.0386523 0.038942 0.037277 0.0387721 0.0381712 0.0388328 0.0374996 0.0388101
0.037059 0.038782 0.0362564 0.0379248 0.0362681 0.0361444 0.0364424 0.0377217 0.0388591 0.0390859
0.03892 0.0364499 0.0384081 0.0361033 0.0374226 0.0368501 0.0388613 0.0360505 0.0366798 0.0379431
0.0389119 0.0390347 0.0386476 0.0392203 0.0389719 0.0384138 0.0392352 0.0391899 0.0366495 0.0389853
0.0389027 0.0391525 0.0359671 0.0369537 0.0392627 0.0391621 0.0381693 0.0389941 0.0362634 0.038474
0.0379443 0.0360856 0.0392384 0.0372682 0.0374878 0.0391762 0.0361119 0.0393171 0.0370619 0.0393145
0.0391604 0.0364521 0.039129 0.0362919 0.0359832 0.0359239 0.037357 0.0377189 0.0391296 0.0386559
0.0391287 0.0392136 0.0388872 0.0394718 0.0368597 0.036563 0.035869 0.0391153 0.0384054 0.0379509
0.0391357 0.039457 0.0391573 0.0393568 0.038596 0.0360722 0.0394456 0.0394694 0.0397373 0.0366545
0.0368957 0.0357927 0.0362528 0.0392977 0.0359023 0.0379567 0.0394174 0.0395064 0.038178 0.039205
0.0388938 0.039294 0.0372792 0.0386514 0.0392546 0.0374909 0.0397941 0.0400941 0.0364465 0.0395856
0.0357513 0.037329 0.0370703 0.0394047 0.0395453 0.0391406 0.0394075 0.0359745 0.0400427 0.0377128
0.0361577 0.0358162 0.039471 0.0368584 0.0384048 0.039299 0.0403516 0.0364369 0.0356963 0.0387532
0.0358749 0.036052 0.0395267 0.0379433 0.0394539 0.0394089 0.0395741 0.0357129 0.0379774 0.0366463
0.0404999 0.0362415 0.0397022 0.0408046 0.0368328 0.0356293 0.039698 0.0397263 0.039403 0.0388993
0.0391351 0.0394854 0.0381768 0.0394778 0.0396834 0.0397624 0.0386411 0.0393968 0.0364408 0.0396281
0.0394023 0.0355758 0.0373345 0.0414457 0.0372904 0.0375051 0.0358562 0.039843 0.0397863 0.0396637
0.0370716 0.0404689 0.040122 0.0358297 0.0377188 0.0389173 0.0356796 0.0409737 0.0409593 0.0360455
0.0384102 0.0360383 0.035648 0.0395013 0.0399464 0.036854 0.041601 0.0363153 0.0355356 0.0379389
0.0391442 0.0395787 0.0398117 0.0396613 0.0362441 0.0398469 0.035521 0.038031 0.0388892 0.0395205
0.0422415 0.0366452 0.0393887 0.039696 0.0367485 0.0354639 0.0424132 0.0399635 0.0399515 0.0399943
0.0381697 0.0386443 0.0395558 0.0397601 0.0399499 0.0400173 0.0356724 0.0402254 0.0415201 0.0358592
0.0396646 0.0398585 0.0364484 0.035392 0.0373414 0.0435257 0.0360544 0.0354936 0.0390789 0.0372879
0.0431465 0.0375084 0.0400319 0.0399353 0.0384099 0.0370723 0.041404 0.0377296 0.0391439 0.0396789
0.0397162 0.0408751 0.0356773 0.0393903 0.039766 0.0422541 0.0359232 0.0354892 0.0368639 0.038884
0.040547 0.0396665 0.0362565 0.03795 0.0362184 0.035381 0.0434366 0.0353365 0.0381191 0.0400562
0.0399226 0.0449648 0.039655 0.0399064 0.0402747 0.036662 0.0421984 0.0356781 0.0386523 0.0366621
0.0352903 0.0358661 0.0449669 0.0406217 0.0354955 0.0397615 0.0441639 0.0381739 0.0402377 0.0402604
0.0402164 0.04007 0.0399253 0.040092 0.0364628 0.0402687 0.0402154 0.0360627 0.0353184 0.0392569
0.0393988 0.0398435 0.0391349 0.046647 0.037331 0.0352081 0.039805 0.0469592 0.0399603 0.0396475
0.0384079 0.0372871 0.0375043 0.0402118 0.0402843 0.0370814 0.0388936 0.0399975 0.037732 0.0398545
0.0427575 0.0355264 0.0418757 0.0362631 0.0368798 0.0357982 0.0353437 0.0441547 0.0356748 0.0429449
0.0354939 0.0401307 0.0399255 0.0453091 0.0351645 0.0382247 0.0412512 0.0379616 0.0494933 0.0401961
0.0403123 0.0361373 0.0352227 0.0462804 0.0358662 0.0386527 0.0353153 0.0410032 0.0366754 0.0484682
0.0407716 0.0400218 0.0365961 0.0351125 0.0393961 0.0381879 0.0399446 0.0491832 0.0396557 0.0400285
0.0405156 0.0391375 0.0360633 0.0405234 0.0404961 0.0401899 0.0403442 0.0399486 0.0404845 0.0351478
0.0394754 0.0364686 0.0524577 0.040486 0.0405317 0.040183 0.0399182 0.0350359 0.0373054 0.05287
0.0384144 0.0389021 0.0354837 0.0465573 0.0356725 0.0373011 0.0405563 0.0404879 0.0400459 0.0375121
0.0436869 0.0353041 0.0403579 0.0370935 0.0503821 0.0377319 0.0362649 0.0401958 0.0403787 0.0353877
0.0368846 0.0358674 0.0447073 0.0349995 0.0383151 0.0431774 0.0352025 0.035664 0.0471239 0.0573186
0.0413936 0.0351315 0.0379605 0.0396617 0.0404797 0.0405823 0.0393902 0.0556118 0.0386497 0.0401159
0.042131 0.0360505 0.0350559 0.040057 0.0509562 0.0366759 0.0399184 0.0402448 0.0402778 0.0391498
0.0414293 0.038193 0.0365564 0.0349404 0.0360685 0.0400791 0.0563921 0.0349727 0.0397207 0.0404671
0.0406051 0.0354866 0.0407934 0.0404224 0.0401964 0.0352976 0.0364729 0.0623172 0.0407963 0.0407851
0.0478283 0.0523816 0.0410264 0.0388965 0.0356803 0.0348755 0.0372924 0.0408164 0.0407694 0.0384245
0.0444025 0.0351174 0.0631775 0.0587712 0.0402098 0.0396543 0.037316 0.0408411 0.0407664 0.0375282
0.0407526 0.0362782 0.0399262 0.0402126 0.0358802 0.0371004 0.0406291 0.0404691 0.0403178 0.0393965
0.0377405 0.041816 0.0349487 0.0383805 0.0348317 0.0401724 0.0368863 0.0674627 0.0352601 0.0386561
0.0708608 0.0401899 0.0404684 0.0475842 0.0350529 0.0355301 0.0449209 0.0379601 0.0407675 0.040853
0.0519734 0.0391509 0.0432702 0.0359436 0.0348849 0.0353081 0.036681 0.0405312 0.0355 0.0590537
0.0543962 0.0402221 0.0360886 0.0351189 0.04905 0.0381901 0.0422614 0.0618664 0.0365167 0.0347792
0.0404769 0.0406619 0.0399523 0.0347922 0.0356967 0.0408667 0.0407582 0.0690905 0.0789305 0.0364857
0.0388938 0.0410758 0.0451005 0.0349407 0.0399254 0.0410866 0.0410761 0.0396509 0.0416377 0.0724089
0.0403967 0.0384281 0.0347174 0.0373018 0.0403221 0.0411102 0.0410651 0.0401913 0.0404194 0.0405244
0.0394056 0.0811644 0.0359003 0.0362965 0.0407515 0.0408905 0.0373163 0.041121 0.0410537 0.0403156
0.037534 0.0411649 0.0422597 0.0347718 0.0371024 0.0404718 0.0407008 0.0353201 0.0867891 0.0377522
0.0351316 0.038439 0.0346564 0.0386676 0.0391439 0.0563111 0.0368962 0.0648263 0.0938779 0.0355132
0.0351334 0.0379706 0.0410565 0.0411262 0.0348938 0.035414 0.0349459 0.0519652 0.0501777 0.0473437
0.0404311 0.0769833 0.0601243 0.0366973 0.0361066 0.0358275 0.034723 0.0408445 0.0447571 0.0399185
0.0357118 0.0407581 0.0409235 0.07342 0.038194 0.0401978 0.0396595 0.0401439 0.0346126 0.0404824
0.0405857 0.0432664 0.034629 0.0364531 0.0457993 0.034772 0.038905 0.0410569 0.0411466 0.106152
0.0365018 0.0939178 0.040436 0.0914739 0.0404654 0.040747 0.0394041 0.0413698 0.0413883 0.0413682
0.0384278 0.0423078 0.0407087 0.0345552 0.0373162 0.0359133 0.0351381 0.0414026 0.0413669 0.0353278
0.0404836 0.111698 0.0675437 0.0349529 0.0363068 0.0410469 0.041174 0.0426743 0.0346026 0.0580193
0.0407604 0.0409572 0.0810495 0.0373166 0.0355227 0.0414047 0.0413537 0.0416336 0.037533 0.117317
0.0391468 0.0371104 0.0386715 0.0344798 0.0385113 0.0377568 0.034773 0.0512149 0.0401957 0.0399192
0.0369108 0.10012 0.131376 0.0406515 0.0379816 0.0413495 0.0414185 0.0406616 0.0349931 0.0404712
0.0405612 0.0361118 0.0353082 0.0347333 0.0396671 0.0357205 0.0407981 0.0588472 0.0367122 0.0412396
0.0508449 0.0410448 0.0411998 0.0739861 0.0357222 0.0345746 0.0467129 0.0464752 0.034604 0.0382053
0.0344432 0.0403066 0.0405424 0.0389174 0.0986894 0.0407534 0.126842 0.0409951 0.035144 0.0413555
0.0414446 0.0393999 0.148877 0.0349567 0.0363643 0.0344763 0.0444428 0.0365124 0.0353373 0.0698948
0.0845184 0.129873 0.034773 0.0359181 0.0384331 0.0416778 0.0410277 0.0594832 0.040628 0.0430514
0.041668 0.0416946 0.0343831 0.0373027 0.105308 0.0355326 0.0410514 0.0412219 0.0401894 0.0416712
0.0416991 0.04302 0.0344394 0.0363136 0.0413517 0.0414613 0.161396 0.0404765 0.0391617 0.0399301
0.0345965 0.163688 0.0407204 0.0521741 0.0408576 0.0416653 0.0417053 0.042181 0.0386707 0.13454
0.0343095 0.038588 0.040752 0.040643 0.0396651 0.0410386 0.0408619 0.0357299 0.189875 0.0373327
0.0361187 0.0375419 0.0416543 0.0417257 0.0349674 0.0371282 0.0351588 0.0348399 0.037761 0.0413429
0.041474 0.0406458 0.0351913 0.0345831 0.0347803 0.0470761 0.0344331 0.0416661 0.036924 0.0873661
0.0410514 0.069767 0.0412522 0.0559351 0.0389182 0.0342842 0.040462 0.0718073 0.0356348 0.0344302
0.0394079 0.0379881 0.175597 0.0972723 0.0353525 0.109417 0.0492735 0.041656 0.0417422 0.0367201
0.0345953 0.213955 0.141287 0.0362792 0.0343117 0.0607227 0.0404721 0.0401958 0.0458548 0.0382179
0.0359295 0.140529 0.0407606 0.0355492 0.192005 0.0407585 0.0409209 0.0413036 0.0399365 0.0365194
0.0408017 0.0413452 0.0414965 0.0419961 0.0410887 0.0342102 0.0372583 0.0439417 0.0419814 0.0420055
0.0432906 0.0342739 0.0391703 0.0344206 0.0416605 0.0417478 0.0530335 0.0384474 0.0419806 0.0420076
0.040744 0.23824 0.0410446 0.233039 0.184459 0.0396636 0.0412887 0.0349869 0.0347984 0.0363248
0.0428189 0.0419829 0.0420191 0.0341515 0.0386372 0.0351785 0.0357468 0.0895884 0.112472 0.041036
0.03461 0.0386791 0.279554 0.0407734 0.0732776 0.0416544 0.041763 0.0419734 0.0420349 0.0413522
0.0475381 0.0342578 0.14491 0.0353722 0.0415282 0.0394209 0.0404704 0.0346907 0.0420903 0.0361361
0.0350555 0.034443 0.0407622 0.0402073 0.247034 0.0341282 0.0406104 0.0344257 0.0373562 0.0617724
0.0375651 0.0355433 0.0342764 0.0867354 0.0409853 0.0632279 0.0371462 0.0411345 0.134842 0.0377775
0.190494 0.041967 0.0420419 0.0410443 0.314572 0.0389186 0.0526047 0.0399315 0.0369364 0.0408871
0.0355678 0.20894 0.0341417 0.0362134 0.0413252 0.0409196 0.0379975 0.0475799 0.0416485 0.0417929
0.0415653 0.0348178 0.0367315 0.0350059 0.035951 0.0342506 0.28937 0.0537183 0.0341031 0.0435206
0.0346315 0.0408585 0.0413482 0.0372067 0.0340497 0.0382258 0.04232 0.0396721 0.0415554 0.0449705
0.0423078 0.0423236 0.0419725 0.0420505 0.114597 0.255804 0.0351961 0.0911592 0.338936 0.147711
0.0422997 0.0423281 0.0365344 0.0391685 0.3658 0.034446 0.03846 0.0743704 0.0407571 0.0404775
0.0339991 0.0386413 0.0423031 0.0423397 0.0434599 0.412985 0.0412569 0.194045 0.0409172 0.0353885
0.0410531 0.0416546 0.0357672 0.0402064 0.0418195 0.0363439 0.0411787 0.0478664 0.0340854 0.0419743
0.0420745 0.435225 0.0410441 0.0413617 0.034264 0.0423012 0.0423491 0.0626057 0.0386952 0.351929
0.0424881 0.0413404 0.0345555 0.0339649 0.0407161 0.0394252 0.0399308 0.0349124 0.0343003 0.0409653
0.259569 0.0348324 0.0415813 0.0346466 0.45046 0.0354249 0.0341121 0.0361565 0.111139 0.0350197
0.0422918 0.0423564 0.0730852 0.487429 0.0411248 0.190599 0.0344641 0.0567726 0.495282 0.115881
0.149095 0.0361435 0.0339792 0.0373715 0.0419656 0.0420981 0.035584 0.0375858 0.314963 0.0340883
0.040956 0.0389312 0.0541825 0.0416583 0.037159 0.0418728 0.0921195 0.0352095 0.049599 0.0377997
0.393575 0.0418349 0.536381 0.0339334 0.0437199 0.195294 0.0407543 0.0369516 0.457595 0.354464
0.0371621 0.0338997 0.0410534 0.0342828 0.0404829 0.0422913 0.0423717 0.0380153 0.0426482 0.0359695
0.0396835 0.0426511 0.0426429 0.0460817 0.538785 0.502355 0.075148 0.036751 0.0412294 0.0414049
0.0426595 0.0426321 0.0413451 0.259024 0.0402007 0.596192 0.0382368 0.0410602 0.0391733 0.0411036
0.0338404 0.0386165 0.0416159 0.0415305 0.0419639 0.0426688 0.0426299 0.0440979 0.0421099 0.654766
0.0365557 0.0481182 0.0339236 0.0354028 0.0341039 0.0346581 0.387175 0.0422974 0.0423918 0.0348449
0.0631647 0.0384679 0.0416506 0.0344745 0.464522 0.720649 0.0410298 0.0357841 0.0426336 0.0426752
0.0418566 0.495384 0.348021 0.0350338 0.565212 0.149308 0.0337942 0.0407555 0.0363633 0.116387
0.0429149 0.784216 0.0399423 0.194434 0.0344212 0.67055 0.0342948 0.0347775 0.0341428 0.0394264
0.0387066 0.041316 0.0410452 0.0407601 0.782188 0.0925744 0.0352878 0.0339473 0.0426287 0.042685
0.772619 0.0410414 0.041971 0.141924 0.0339302 0.254948 0.0422934 0.0424023 0.0853689 0.0544581
0.041352 0.0421224 0.0404808 0.261883 0.868075 0.0360402 0.0338288 0.0617665 0.0361732 0.0414519
0.0341165 0.0422169 0.767479 0.0337706 0.0438536 0.460517 0.0352266 0.0356029 0.0412866 0.0416577
0.471254 0.909115 0.0756194 0.0518662 0.571563 0.041646 0.0389475 0.0426219 0.0426995 0.0337483
0.0371059 0.720211 0.0373762 0.334659 0.0375913 0.0411614 0.723447 0.0371681 0.0346743 0.0429833
0.913607 0.0418875 0.0344879 0.0429917 0.0429825 0.0378104 0.047244 0.836632 0.039689 0.0411696
0.0348636 0.0402062 0.0369669 0.0359856 0.0430019 0.0429769 0.0422849 0.0424111 0.924062 0.0380299
0.0343053 0.889596 0.04177 0.0339403 0.0336732 0.0385821 0.695807 0.148562 0.0419704 0.0337694
0.0483051 0.0634242 0.191816 0.0367702 0.0410981 0.043006 0.0429687 0.0447735 0.990198 0.0426253
0.0427104 0.0421465 0.0391889 0.116184 0.0382501 0.0354265 0.845434 0.247897 0.0410444 0.435863
0.551572 0.0341263 0.646327 0.992476 0.0413481 0.0407657 0.0350567 0.66664 0.0365744 0.0429699
0.0430107 0.0336275 0.0407392 0.0926434 0.78555 0.791366 0.0358038 0.043369 0.0384765 0.955633
0.0416513 0.0414931 0.31663 0.0416903 0.0399549 0.0342714 0.856103 0.041446 0.0411239 0.0339782
0.0346481 0.607251 0.0422874 0.033771 0.0424311 0.041333 0.0546088 0.0363796 0.0429722 0.0430212
0.0426276 0.0427175 0.0419181 0.0351554 0.0337946 0.899057 0.947756 0.734179 0.03395 0.0394354
0.0404813 0.0345108 0.0757392 0.174888 0.0346988 0.0991916 0.0419616 0.038713 1.01199 0.333496
0.0336811 0.0359079 0.0336162 0.0438895 0.0343257 0.557359 0.0425024 0.0672653 0.831895 0.44568
0.0412198 0.0352544 0.0421722 0.394502 0.676002 0.591549 0.984448 0.0356281 0.0361892 0.0429663
0.0430321 0.054239 0.721559 0.187924 0.0370114 0.0335857 0.146947 0.0341431 0.76126 0.238442
0.760279 0.0412615 0.0348907 0.921781 0.513916 0.0433319 0.0426193 0.0389576 0.0433457 0.0433279
0.617107 0.0413421 0.0410528 0.0427338 0.048424 0.0337748 0.786901 0.0422936 0.115414 0.0402216
0.0634447 0.0411767 0.0396927 0.0433511 0.043329 0.0419273 0.0424546 0.295583 0.0483887 0.0336147
0.692019 0.0416562 0.84774 0.0373835 0.905201 0.0375944 0.0335056 0.0385319 0.0371798 0.0339647
0.0378133 0.0360043 0.0429625 0.0430399 0.0433497 0.0433217 0.469512 0.0417161 0.0454413 0.559687
0.977103 0.0369798 0.370106 0.0923686 0.0407685 0.0415258 0.770875 0.0419429 0.0380374 0.473038
0.0419592 0.624337 0.035455 0.62336 0.0350851 0.955843 0.0392044 0.0367819 0.351477 0.0433157
0.0433563 0.0345374 0.715744 0.0334722 0.0406961 0.0413734 0.042194 0.0343521 0.69581 0.0382632
0.0412203 0.505702 0.0426141 0.426987 0.730435 0.0437737 0.894077 0.0415686 0.0427555 0.559723
0.0336078 0.0337883 0.0546502 0.0341693 0.034108 0.0365869 0.0399603 0.80901 0.035826 0.0429652
0.0430513 0.0338218 0.0345068 0.042289 0.0755182 0.0433201 0.0433678 0.624886 0.0347253 0.0404924
0.818822 0.183035 0.0336491 0.0350297 0.0412819 0.0384905 0.227384 0.923083 0.0424715 0.455525
0.144566 0.502836 0.0334647 0.0438399 0.390086 0.0413457 0.0394504 0.0339875 0.957196 0.206711
0.27274 0.0335227 0.0357723 0.0427291 0.113675 0.0363963 0.740938 0.0416536 0.384213 0.557366
0.0730523 0.501587 0.0352817 0.0433213 0.0433763 0.923868 0.644012 0.114264 0.0387223 0.0413877
0.0419672 0.0566586 0.0410625 0.687713 0.0334158 0.0368808 0.409707 0.452653 0.666243 0.0426199
0.0349157 0.0336122 0.042963 0.0356512 0.309681 0.0412612 0.0430698 0.0417485 0.04197 0.352242
0.0633022 0.495059 0.857401 0.698386 0.0427696 0.0436953 0.0362102 0.0338109 0.0437063 0.0436848
0.0415619 0.040233 0.0495827 0.0422173 0.816767 0.0483373 0.0334543 0.0420827 0.597353 0.0437049
0.0436866 0.0343753 0.782679 0.091733 0.0422814 0.0384378 0.0333475 0.40739 0.0397009 0.038962
0.935988 0.0433138 0.0433836 0.368705 0.444262 0.0341929 0.0407733 0.0437064 0.0436854 0.0414199
0.323002 0.0424881 0.0460409 0.976266 0.708423 0.534892 0.0345595 0.421352 0.0373989 0.0360274
0.0376057 0.534062 0.0340128 0.0351079 0.0371964 0.215368 0.0413208 0.0429556 0.907601 0.177264
0.0378209 0.367136 0.663462 0.040621 0.0333239 0.0354751 0.043676 0.0437178 0.402496 0.0430827
0.0336336 0.249228 0.638269 0.332196 0.0369938 0.0426228 0.603128 0.033446 0.0417153 0.0416505
0.054549 0.476231 0.075036 0.0392093 0.0380444 0.0441108 0.830974 0.141671 0.0413408 0.610316
0.0433101 0.0433962 0.291142 0.0427795 0.0347461 0.0419726 0.0367933 0.0339475 0.270487 0.78513
0.0338334 0.0336756 0.034347 0.574664 0.0437266 0.043675 0.0413582 0.039962 0.0405068 0.365663
0.0382727 0.752032 0.331724 0.0334971 0.0348916 0.427654 0.0358474 0.8689 0.0437327 0.0333079
0.0419991 0.300165 0.112816 0.0365992 0.0422846 0.0417843 0.0422428 0.0429487 0.519462 0.686199
0.0333538 0.0356409 0.237343 0.128345 0.0385028 0.268382 0.44398 0.0429548 0.0394608 0.0410658
0.333083 0.0436813 0.0437303 0.0414998 0.0789549 0.034212 0.0413212 0.580468 0.0352983 0.0334586
0.0415986 0.0425081 0.389734 0.300741 0.0430896 0.0433123 0.0630206 0.0434101 0.713616 0.0336587
0.0349357 0.616409 0.0364123 0.0332514 0.036737 0.456334 0.0589514 0.54048 0.272104 0.0340317
0.0343948 0.0426174 0.0907523 0.557525 0.0481609 0.0332907 0.0387329 0.0440748 0.0356672 0.0440784
0.0440636 0.0422515 0.04146 0.559065 0.202847 0.304346 0.357074 0.0427956 0.0402341 0.0505693
0.840415 0.225986 0.241844 0.0440779 0.0440601 0.0382951 0.0331979 0.273494 0.0436775 0.0437372
0.402542 0.170881 0.0338535 0.03623 0.0407837 0.911304 0.0345802 0.234398 0.0419685 0.0397141
0.0440869 0.0440627 0.247413 0.503956 0.046518 0.04331 0.0413796 0.0389672 0.0416578 0.138514
0.033483 0.327319 0.0429599 0.0434167 0.27903 0.0422935 0.370852 0.483236 0.0351246 0.0743832
0.0331714 0.0404919 0.620358 0.0413808 0.760978 0.0332911 0.044057 0.0440968 0.0431028 0.22357
0.2492 0.0542736 0.041826 0.766598 0.042022 0.0422619 0.44198 0.0336767 0.0360472 0.0354872
0.0436682 0.0437493 0.570058 0.0413661 0.0443759 0.0347679 0.0374152 0.0418095 0.0425269 0.0376232
0.225443 0.597826 0.0372092 0.300581 0.0426141 0.111042 0.344158 0.0378352 0.255878 0.0337968
0.0440502 0.0440991 0.0392109 0.0341817 0.0335247 0.0405131 0.915268 0.0370054 0.034052 0.386526
0.608067 0.0435757 0.0331448 0.038053 0.0399705 0.0347287 0.0333331 0.227796 0.0416273 0.0342347
0.042814 0.960875 0.201191 0.0368063 0.0433045 0.0431196 0.0338722 0.0413582 0.316597 0.0410695
0.0354974 0.03319 0.0358626 0.277221 0.0434257 0.0333118 0.0335033 0.0382771 0.041561 0.203994
0.044398 0.0625679 0.205593 0.354908 0.0436683 0.190277 0.0440537 0.0441015 0.0429621 0.264012
0.0443914 0.044399 0.0437597 0.142597 0.233238 0.0344204 0.48353 0.0895175 0.201869 0.0366136
0.0848775 0.632128 0.034957 0.0443846 0.0444043 0.490699 0.0353118 0.0331007 0.0365917 0.041495
0.164288 0.787212 0.0431211 0.0394646 0.208907 0.0385073 0.0422948 0.0478955 0.0331318 0.0611099
0.0336949 0.58727 0.291443 0.0443847 0.0444148 0.186229 0.0419681 0.327191 0.255839 0.611077
0.0423621 0.0364255 0.0346069 0.0440559 0.0441107 0.213216 0.187736 0.051379 0.935641 0.0330484
0.0381236 0.135188 0.0402354 0.0426191 0.042277 0.0356788 0.0407938 0.0443836 0.0444188 0.0416701
0.0420425 0.0425428 0.0387415 0.0433045 0.973293 0.0333315 0.0436716 0.0414281 0.387982 0.269997