# vtk DataFile Version 2.0
sampleSurface
ASCII
DATASET POLYDATA
POINTS 43634 double
-9.86865e-17 0.34375 1.75
-8.63507e-17 -0.941406 1.75
1.3125 0.34375 1.75
-1.3125 0.34375 1.75
-1.3125 -0.941406 1.75
1.3125 -0.941406 1.75
-9.86865e-17 1.62891 1.75
1.3125 1.62891 1.75
-1.3125 1.62891 1.75
-7.40149e-17 -2.22656 1.75
-1.3125 -2.22656 1.75
1.3125 -2.22656 1.75
2.625 0.34375 1.75
-2.625 0.34375 1.75
-2.625 -0.941406 1.75
2.625 -0.941406 1.75
-9.86865e-17 2.91406 1.75
2.625 1.62891 1.75
-2.625 1.62891 1.75
1.3125 2.91406 1.75
-1.3125 2.91406 1.75
-2.625 -2.22656 1.75
2.625 -2.22656 1.75
-6.16791e-17 -3.51172 1.75
-1.3125 -3.51172 1.75
1.3125 -3.51172 1.75
2.625 2.91406 1.75
-2.625 2.91406 1.75
3.9375 0.34375 1.75
-3.9375 0.34375 1.75
-3.9375 -0.941406 1.75
3.9375 -0.941406 1.75
-9.86865e-17 4.19922 1.75
3.9375 1.62891 1.75
-3.9375 1.62891 1.75
-2.625 -3.51172 1.75
2.625 -3.51172 1.75
1.3125 4.19922 1.75
-1.3125 4.19922 1.75
-3.9375 -2.22656 1.75
3.9375 -2.22656 1.75
-4.93432e-17 -4.79688 1.75
3.9375 2.91406 1.75
-3.9375 2.91406 1.75
2.625 4.19922 1.75
-2.625 4.19922 1.75
1.3125 -4.79688 1.75
-1.3125 -4.79688 1.75
-5.25 0.34375 1.75
5.25 0.34375 1.75
-3.9375 -3.51172 1.75
3.9375 -3.51172 1.75
-5.25 -0.941406 1.75
5.25 -0.941406 1.75
2.625 -4.79688 1.75
-2.625 -4.79688 1.75
-9.86865e-17 5.48438 1.75
-5.25 1.62891 1.75
5.25 1.62891 1.75
1.3125 5.48438 1.75
-1.3125 5.48438 1.75
-5.25 -2.22656 1.75
5.25 -2.22656 1.75
3.9375 4.19922 1.75
-3.9375 4.19922 1.75
-5.25 2.91406 1.75
5.25 2.91406 1.75
2.625 5.48438 1.75
-2.625 5.48438 1.75
-3.70074e-17 -6.08203 1.75
3.9375 -4.79688 1.75
-3.9375 -4.79688 1.75
1.3125 -6.08203 1.75
-1.3125 -6.08203 1.75
-5.25 -3.51172 1.75
5.25 -3.51172 1.75
6.5625 0.34375 1.75
-6.5625 0.34375 1.75
2.625 -6.08203 1.75
-2.625 -6.08203 1.75
-6.5625 -0.941406 1.75
6.5625 -0.941406 1.75
-5.25 4.19922 1.75
5.25 4.19922 1.75
3.9375 5.48438 1.75
-3.9375 5.48438 1.75
6.5625 1.62891 1.75
-6.5625 1.62891 1.75
-9.86865e-17 6.76953 1.75
-1.3125 6.76953 1.75
1.3125 6.76953 1.75
-6.5625 -2.22656 1.75
6.5625 -2.22656 1.75
-5.25 -4.79688 1.75
5.25 -4.79688 1.75
6.5625 2.91406 1.75
-6.5625 2.91406 1.75
3.9375 -6.08203 1.75
-3.9375 -6.08203 1.75
-2.625 6.76953 1.75
2.625 6.76953 1.75
-2.46716e-17 -7.36719 1.75
-6.5625 -3.51172 1.75
6.5625 -3.51172 1.75
-1.3125 -7.36719 1.75
1.3125 -7.36719 1.75
-5.25 5.48438 1.75
5.25 5.48438 1.75
-6.5625 4.19922 1.75
6.5625 4.19922 1.75
2.625 -7.36719 1.75
-2.625 -7.36719 1.75
-3.9375 6.76953 1.75
3.9375 6.76953 1.75
7.875 0.34375 1.75
-7.875 0.34375 1.75
7.875 -0.941406 1.75
-7.875 -0.941406 1.75
-5.25 -6.08203 1.75
5.25 -6.08203 1.75
7.875 1.62891 1.75
-7.875 1.62891 1.75
-9.86865e-17 8.05469 1.75
-6.5625 -4.79688 1.75
6.5625 -4.79688 1.75
-1.3125 8.05469 1.75
1.3125 8.05469 1.75
-7.875 -2.22656 1.75
7.875 -2.22656 1.75
3.9375 -7.36719 1.75
-3.9375 -7.36719 1.75
-7.875 2.91406 1.75
7.875 2.91406 1.75
-2.625 8.05469 1.75
2.625 8.05469 1.75
-6.5625 5.48438 1.75
6.5625 5.48438 1.75
-5.25 6.76953 1.75
5.25 6.76953 1.75
-7.875 -3.51172 1.75
7.875 -3.51172 1.75
-1.23358e-17 -8.65234 1.75
1.3125 -8.65234 1.75
-1.3125 -8.65234 1.75
-7.875 4.19922 1.75
7.875 4.19922 1.75
-6.5625 -6.08203 1.75
6.5625 -6.08203 1.75
-3.9375 8.05469 1.75
3.9375 8.05469 1.75
2.625 -8.65234 1.75
-2.625 -8.65234 1.75
-5.25 -7.36719 1.75
5.25 -7.36719 1.75
-9.1875 0.34375 1.75
9.1875 0.34375 1.75
-7.875 -4.79688 1.75
7.875 -4.79688 1.75
-9.1875 -0.941406 1.75
9.1875 -0.941406 1.75
-9.1875 1.62891 1.75
9.1875 1.62891 1.75
-9.86865e-17 9.33984 1.75
6.5625 6.76953 1.75
-6.5625 6.76953 1.75
-1.3125 9.33984 1.75
1.3125 9.33984 1.75
-9.1875 -2.22656 1.75
9.1875 -2.22656 1.75
3.9375 -8.65234 1.75
-3.9375 -8.65234 1.75
-7.875 5.48438 1.75
7.875 5.48438 1.75
-5.25 8.05469 1.75
5.25 8.05469 1.75
-9.1875 2.91406 1.75
9.1875 2.91406 1.75
-2.625 9.33984 1.75
2.625 9.33984 1.75
-9.1875 -3.51172 1.75
9.1875 -3.51172 1.75
6.5625 -7.36719 1.75
-6.5625 -7.36719 1.75
0 -9.9375 1.75
7.875 -6.08203 1.75
-7.875 -6.08203 1.75
1.3125 -9.9375 1.75
-1.3125 -9.9375 1.75
-9.1875 4.19922 1.75
9.1875 4.19922 1.75
-5.25 -8.65234 1.75
5.25 -8.65234 1.75
-3.9375 9.33984 1.75
3.9375 9.33984 1.75
2.625 -9.9375 1.75
-2.625 -9.9375 1.75
-9.1875 -4.79688 1.75
9.1875 -4.79688 1.75
-7.875 6.76953 1.75
7.875 6.76953 1.75
6.5625 8.05469 1.75
-6.5625 8.05469 1.75
10.5 0.34375 1.75
-10.5 0.34375 1.75
-10.5 -0.941406 1.75
10.5 -0.941406 1.75
-9.86865e-17 10.625 1.75
10.5 1.62891 1.75
-10.5 1.62891 1.75
3.9375 -9.9375 1.75
-3.9375 -9.9375 1.75
-9.1875 5.48438 1.75
9.1875 5.48438 1.75
1.3125 10.625 1.75
-1.3125 10.625 1.75
-5.25 9.33984 1.75
5.25 9.33984 1.75
-10.5 -2.22656 1.75
10.5 -2.22656 1.75
-7.875 -7.36719 1.75
7.875 -7.36719 1.75
6.5625 -8.65234 1.75
-6.5625 -8.65234 1.75
10.5 2.91406 1.75
-10.5 2.91406 1.75
2.625 10.625 1.75
-2.625 10.625 1.75
9.1875 -6.08203 1.75
-9.1875 -6.08203 1.75
-10.5 -3.51172 1.75
10.5 -3.51172 1.75
-2.46716e-17 -11.2227 1.75
-5.25 -9.9375 1.75
5.25 -9.9375 1.75
7.875 8.05469 1.75
-7.875 8.05469 1.75
-1.3125 -11.2227 1.75
1.3125 -11.2227 1.75
10.5 4.19922 1.75
-10.5 4.19922 1.75
3.9375 10.625 1.75
-3.9375 10.625 1.75
-9.1875 6.76953 1.75
9.1875 6.76953 1.75
-6.5625 9.33984 1.75
6.5625 9.33984 1.75
-2.625 -11.2227 1.75
2.625 -11.2227 1.75
-10.5 -4.79688 1.75
10.5 -4.79688 1.75
-7.875 -8.65234 1.75
7.875 -8.65234 1.75
-11.7611 0.34375 1.75
-9.1875 -7.36719 1.75
9.1875 -7.36719 1.75
-11.7611 -0.941406 1.75
11.8125 0.34375 1.75
10.5 5.48438 1.75
-10.5 5.48438 1.75
11.8125 -0.941406 1.75
-5.25 10.625 1.75
5.25 10.625 1.75
-11.7611 1.62891 1.75
-3.9375 -11.2227 1.75
3.9375 -11.2227 1.75
-6.5625 -9.9375 1.75
6.5625 -9.9375 1.75
-8.63507e-17 11.9102 1.75
11.8125 1.62891 1.75
-11.7611 -2.22656 1.75
1.3125 11.9102 1.75
-1.3125 11.9102 1.75
11.8125 -2.22656 1.75
-11.7611 2.91406 1.75
-10.5 -6.08203 1.75
10.5 -6.08203 1.75
11.8125 2.91406 1.75
2.625 11.9102 1.75
-2.625 11.9102 1.75
7.875 9.33984 1.75
-7.875 9.33984 1.75
-9.1875 8.05469 1.75
9.1875 8.05469 1.75
-11.7611 -3.51172 1.75
11.8125 -3.51172 1.75
-5.25 -11.2227 1.75
5.25 -11.2227 1.75
-6.5625 10.625 1.75
6.5625 10.625 1.75
-11.7611 4.19922 1.75
10.5 6.76953 1.75
-10.5 6.76953 1.75
-4.93432e-17 -12.5078 1.75
11.8125 4.19922 1.75
3.9375 11.9102 1.75
-3.9375 11.9102 1.75
-1.3125 -12.5078 1.75
1.3125 -12.5078 1.75
9.1875 -8.65234 1.75
-9.1875 -8.65234 1.75
-7.875 -9.9375 1.75
7.875 -9.9375 1.75
-11.7611 -4.79688 1.75
11.8125 -4.79688 1.75
-2.625 -12.5078 1.75
2.625 -12.5078 1.75
-10.5 -7.36719 1.75
10.5 -7.36719 1.75
-11.7611 5.48438 1.75
6.5625 -11.2227 1.75
-6.5625 -11.2227 1.75
-5.25 11.9102 1.75
5.25 11.9102 1.75
11.8125 5.48438 1.75
-13.0222 0.34375 1.75
-13.0222 -0.941406 1.75
-9.1875 9.33984 1.75
9.1875 9.33984 1.75
3.9375 -12.5078 1.75
-3.9375 -12.5078 1.75
-13.0222 1.62891 1.75
13.125 0.34375 1.75
13.125 -0.941406 1.75
-7.40149e-17 13.1953 1.75
-13.0222 -2.22656 1.75
7.875 10.625 1.75
-7.875 10.625 1.75
13.125 1.62891 1.75
10.5 8.05469 1.75
-10.5 8.05469 1.75
-11.7611 -6.08203 1.75
1.3125 13.1953 1.75
-1.3125 13.1953 1.75
11.8125 -6.08203 1.75
13.125 -2.22656 1.75
-13.0222 2.91406 1.75
13.125 2.91406 1.75
2.625 13.1953 1.75
-2.625 13.1953 1.75
-13.0222 -3.51172 1.75
-9.1875 -9.9375 1.75
9.1875 -9.9375 1.75
5.25 -12.5078 1.75
-5.25 -12.5078 1.75
-11.7611 6.76953 1.75
13.125 -3.51172 1.75
-6.5625 11.9102 1.75
6.5625 11.9102 1.75
-10.5 -8.65234 1.75
10.5 -8.65234 1.75
11.8125 6.76953 1.75
-13.0222 4.19922 1.75
-7.875 -11.2227 1.75
7.875 -11.2227 1.75
3.9375 13.1953 1.75
-3.9375 13.1953 1.75
13.125 4.19922 1.75
-7.40149e-17 -13.793 1.75
-1.3125 -13.793 1.75
1.3125 -13.793 1.75
-13.0222 -4.79688 1.75
-11.7611 -7.36719 1.75
11.8125 -7.36719 1.75
13.125 -4.79688 1.75
-2.625 -13.793 1.75
2.625 -13.793 1.75
-9.1875 10.625 1.75
9.1875 10.625 1.75
10.5 9.33984 1.75
-10.5 9.33984 1.75
-6.5625 -12.5078 1.75
6.5625 -12.5078 1.75
-13.0222 5.48438 1.75
-5.25 13.1953 1.75
5.25 13.1953 1.75
13.125 5.48438 1.75
-11.7611 8.05469 1.75
-7.875 11.9102 1.75
7.875 11.9102 1.75
-14.2833 0.34375 1.75
11.8125 8.05469 1.75
-14.2833 -0.941406 1.75
3.9375 -13.793 1.75
-3.9375 -13.793 1.75
-13.0222 -6.08203 1.75
-14.2833 1.62891 1.75
14.4375 0.34375 1.75
-14.2833 -2.22656 1.75
-10.5 -9.9375 1.75
10.5 -9.9375 1.75
13.125 -6.08203 1.75
14.4375 -0.941406 1.75
-6.16791e-17 14.4805 1.75
-9.1875 -11.2227 1.75
9.1875 -11.2227 1.75
14.4375 1.62891 1.75
1.3125 14.4805 1.75
-1.3125 14.4805 1.75
-14.2833 2.91406 1.75
-11.7611 -8.65234 1.75
14.4375 -2.22656 1.75
11.8125 -8.65234 1.75
-13.0222 6.76953 1.75
-14.2833 -3.51172 1.75
2.625 14.4805 1.75
-2.625 14.4805 1.75
14.4375 2.91406 1.75
-6.5625 13.1953 1.75
6.5625 13.1953 1.75
5.25 -13.793 1.75
-5.25 -13.793 1.75
13.125 6.76953 1.75
-7.875 -12.5078 1.75
7.875 -12.5078 1.75
14.4375 -3.51172 1.75
-14.2833 4.19922 1.75
10.5 10.625 1.75
-10.5 10.625 1.75
-13.0222 -7.36719 1.75
3.9375 14.4805 1.75
-3.9375 14.4805 1.75
-11.7611 9.33984 1.75
14.4375 4.19922 1.75
9.1875 11.9102 1.75
-9.1875 11.9102 1.75
13.125 -7.36719 1.75
11.8125 9.33984 1.75
-14.2833 -4.79688 1.75
-9.86865e-17 -15.0781 1.75
1.3125 -15.0781 1.75
-1.3125 -15.0781 1.75
14.4375 -4.79688 1.75
-6.5625 -13.793 1.75
6.5625 -13.793 1.75
-14.2833 5.48438 1.75
2.625 -15.0781 1.75
-2.625 -15.0781 1.75
-13.0222 8.05469 1.75
-7.875 13.1953 1.75
7.875 13.1953 1.75
-10.5 -11.2227 1.75
10.5 -11.2227 1.75
-11.7611 -9.9375 1.75
13.125 8.05469 1.75
5.25 14.4805 1.75
-5.25 14.4805 1.75
11.8125 -9.9375 1.75
14.4375 5.48438 1.75
9.1875 -12.5078 1.75
-9.1875 -12.5078 1.75
-14.2833 -6.08203 1.75
-15.5445 0.34375 1.75
-15.5445 -0.941406 1.75
-3.9375 -15.0781 1.75
3.9375 -15.0781 1.75
-15.5445 1.62891 1.75
-13.0222 -8.65234 1.75
14.4375 -6.08203 1.75
-15.5445 -2.22656 1.75
13.125 -8.65234 1.75
15.75 0.34375 1.75
-4.93432e-17 15.7656 1.75
15.75 -0.941406 1.75
-14.2833 6.76953 1.75
-15.5445 2.91406 1.75
1.3125 15.7656 1.75
-1.3125 15.7656 1.75
15.75 1.62891 1.75
-11.7611 10.625 1.75
10.5 11.9102 1.75
-10.5 11.9102 1.75
7.875 -13.793 1.75
-7.875 -13.793 1.75
11.8125 10.625 1.75
-6.5625 14.4805 1.75
6.5625 14.4805 1.75
[...]
POINT_DATA 43634
FIELD attributes 1
nut 1 43634 float
0.522226 0.52278 0.52227 0.521961 0.522702 0.522929 0.521499 0.521654 0.521098 0.523364
0.523293 0.523705 0.522615 0.521747 0.522532 0.523387 0.52058 0.521854 0.521022 0.520952
0.520258 0.523295 0.52407 0.524105 0.523877 0.524499 0.521181 0.520348 0.523358 0.521872
0.522502 0.523825 0.519691 0.522681 0.521208 0.523994 0.524632 0.520157 0.519559 0.52323
0.524243 0.524869 0.521877 0.520418 0.520618 0.519624 0.525116 0.524531 0.522068 0.52418
0.524037 0.524766 0.522701 0.524378 0.525103 0.5246 0.518933 0.521267 0.523862 0.51928
0.518891 0.523303 0.524813 0.521245 0.51954 0.520379 0.523253 0.519988 0.518756 0.525529
0.525421 0.524758 0.525579 0.52525 0.523999 0.525517 0.525221 0.522081 0.525651 0.525185
0.522824 0.525411 0.519563 0.522628 0.520801 0.518645 0.525071 0.521271 0.518197 0.518046
0.518399 0.523477 0.525851 0.524724 0.52622 0.524808 0.520511 0.526138 0.525344 0.517766
0.51917 0.526059 0.524098 0.526424 0.52595 0.526077 0.518852 0.52216 0.519832 0.524594
0.526335 0.525858 0.517805 0.520306 0.527008 0.522172 0.526881 0.522889 0.52541 0.526755
0.527003 0.521512 0.517367 0.524702 0.526825 0.51701 0.51757 0.523643 0.526939 0.526764
0.525902 0.520853 0.526898 0.516796 0.518231 0.519131 0.524411 0.518117 0.521739 0.524335
0.527247 0.526579 0.526755 0.526556 0.520132 0.527041 0.525351 0.527107 0.517022 0.519556
0.527071 0.526572 0.526006 0.527122 0.522499 0.529396 0.524904 0.527475 0.523095 0.528647
0.521862 0.530072 0.516373 0.52402 0.518275 0.51596 0.516742 0.523749 0.528416 0.527275
0.526534 0.519305 0.527391 0.517257 0.521161 0.521122 0.530372 0.515946 0.517311 0.524452
0.528632 0.527465 0.526017 0.527171 0.527675 0.525435 0.527488 0.527049 0.520311 0.530723
0.526561 0.527558 0.516185 0.518632 0.52764 0.527165 0.52508 0.528671 0.518404 0.527486
0.523391 0.517315 0.532539 0.522779 0.523362 0.531455 0.515281 0.534073 0.522054 0.527691
0.527172 0.519497 0.531413 0.515817 0.515032 0.516274 0.520434 0.523891 0.531051 0.526019
0.528062 0.528061 0.526622 0.535362 0.521263 0.516438 0.515134 0.528627 0.525612 0.524489
0.530853 0.527833 0.527093 0.528118 0.527047 0.517554 0.527557 0.528097 0.536322 0.520517
0.51763 0.515196 0.518719 0.532113 0.516389 0.522681 0.527638 0.528065 0.525124 0.530361
0.526661 0.528646 0.522827 0.526119 0.528877 0.523485 0.536973 0.537303 0.519831 0.535463
0.515257 0.519528 0.522126 0.527742 0.528177 0.527098 0.52866 0.514171 0.539184 0.524066
0.514705 0.514145 0.534247 0.521455 0.525731 0.530027 0.541771 0.515469 0.514168 0.526154
0.516785 0.517979 0.532267 0.524626 0.533123 0.527644 0.528723 0.51558 0.52195 0.520831
0.538264 0.519127 0.528434 0.543978 0.516537 0.514084 0.528149 0.528544 0.529317 0.526687
0.527222 0.529046 0.525192 0.532129 0.528109 0.528507 0.526274 0.53017 0.520179 0.529112
0.527549 0.514302 0.51834 0.545523 0.522916 0.523559 0.517205 0.531502 0.528736 0.528221
0.522318 0.543444 0.540607 0.513128 0.524216 0.525173 0.516025 0.546508 0.538702 0.518339
0.525768 0.513483 0.513177 0.531685 0.537849 0.521737 0.550191 0.514344 0.51303 0.52483
0.527269 0.52951 0.529222 0.528182 0.519428 0.535821 0.514801 0.52092 0.526778 0.530438
0.546484 0.521113 0.527685 0.529317 0.515388 0.513028 0.553813 0.528923 0.528743 0.528993
0.52537 0.526343 0.531643 0.534535 0.528645 0.52908 0.516332 0.530091 0.537987 0.517482
0.528052 0.529493 0.520399 0.513457 0.516886 0.555991 0.518603 0.515155 0.524103 0.523179
0.546624 0.523731 0.52931 0.528673 0.525867 0.522594 0.552128 0.524321 0.527266 0.530437
0.53378 0.547111 0.512084 0.5278 0.529738 0.556899 0.512256 0.512045 0.521948 0.526869
0.542758 0.531568 0.519637 0.524946 0.513002 0.511877 0.561451 0.513923 0.519355 0.529659
0.528665 0.556269 0.528126 0.529725 0.539921 0.521263 0.536099 0.516617 0.526394 0.514055
0.512118 0.517801 0.565729 0.528382 0.51539 0.533147 0.545365 0.525524 0.529337 0.529498
0.52921 0.537989 0.528584 0.529948 0.520578 0.52967 0.529148 0.518901 0.514169 0.522575
0.527765 0.530619 0.527317 0.555086 0.515192 0.51261 0.531358 0.568097 0.530194 0.528259
0.526016 0.523438 0.523981 0.529118 0.529801 0.522782 0.526939 0.536311 0.524471 0.532558
0.563216 0.510902 0.555859 0.51992 0.522087 0.51104 0.510811 0.570297 0.517069 0.533318
0.515794 0.530241 0.528608 0.542613 0.512924 0.517222 0.549876 0.525005 0.567099 0.529097
0.530056 0.511556 0.510841 0.575805 0.518214 0.526475 0.514496 0.526364 0.521449 0.552484
0.545657 0.534799 0.512497 0.51124 0.527738 0.525562 0.531493 0.57944 0.528251 0.530997
0.529767 0.527427 0.519273 0.530021 0.529591 0.529062 0.530368 0.532218 0.542235 0.513186
0.520209 0.520872 0.563563 0.529583 0.530126 0.530609 0.528686 0.511612 0.513395 0.580448
0.526111 0.526961 0.516339 0.538481 0.517522 0.523526 0.530158 0.529558 0.533897 0.524123
0.530014 0.515029 0.539343 0.522899 0.548373 0.524647 0.520268 0.529073 0.530623 0.509521
0.522307 0.518595 0.577462 0.511886 0.514877 0.567543 0.509582 0.509681 0.586724 0.577863
0.523567 0.513682 0.525132 0.528186 0.52949 0.53044 0.527854 0.558669 0.526612 0.531739
0.55908 0.510009 0.509868 0.532354 0.59294 0.521751 0.528695 0.531217 0.537256 0.527455
0.552489 0.525612 0.510682 0.510214 0.51959 0.533565 0.595128 0.512308 0.517171 0.529444
0.530772 0.516747 0.530218 0.530871 0.529098 0.515551 0.52117 0.572469 0.530453 0.529975
0.533454 0.542646 0.547031 0.527067 0.517855 0.510472 0.511426 0.530436 0.52995 0.526136
0.526117 0.514249 0.59401 0.552873 0.536214 0.528268 0.52361 0.530484 0.52995 0.524178
0.543041 0.520498 0.528647 0.532435 0.518865 0.523099 0.530973 0.52947 0.531814 0.527944
0.524773 0.519807 0.512876 0.512507 0.51092 0.533496 0.522585 0.565717 0.508098 0.526687
0.59021 0.52909 0.531394 0.595737 0.508438 0.508196 0.582727 0.525316 0.529861 0.530866
0.606781 0.527488 0.570643 0.508382 0.50882 0.515915 0.522003 0.54045 0.517069 0.61314
0.535815 0.535569 0.519781 0.514708 0.527908 0.525777 0.560826 0.545961 0.508696 0.509028
0.529487 0.531207 0.513878 0.511493 0.518148 0.531168 0.529776 0.614364 0.584479 0.521352
0.527197 0.530637 0.521415 0.513378 0.528688 0.530774 0.530389 0.528386 0.55308 0.558533
0.532381 0.526214 0.509364 0.509196 0.533204 0.530761 0.530305 0.529059 0.538806 0.53199
0.527931 0.612664 0.519108 0.520661 0.529819 0.531298 0.523835 0.530932 0.530303 0.534862
0.524315 0.547703 0.515318 0.511978 0.523337 0.529459 0.531735 0.516311 0.577581 0.524847
0.515107 0.509992 0.510061 0.526694 0.527593 0.528586 0.52276 0.538131 0.609255 0.517453
0.506711 0.525409 0.530224 0.531288 0.507282 0.506583 0.513854 0.618919 0.522007 0.602116
0.53734 0.551174 0.63164 0.522127 0.520008 0.506623 0.507614 0.543994 0.585412 0.528769
0.518486 0.529863 0.531536 0.63876 0.525915 0.529082 0.528392 0.510575 0.510629 0.533034
0.532547 0.571635 0.507811 0.506524 0.515764 0.512435 0.527226 0.530117 0.531473 0.604504
0.521507 0.570321 0.534195 0.641709 0.529419 0.532313 0.527948 0.530952 0.531048 0.53076
0.526341 0.561021 0.541226 0.508369 0.50647 0.519413 0.515604 0.531148 0.530653 0.516778
0.536038 0.641969 0.529937 0.514357 0.520915 0.530145 0.531596 0.510671 0.510999 0.521543
0.529821 0.532046 0.543707 0.524037 0.517856 0.531351 0.530631 0.553463 0.524504 0.598338
0.527702 0.523478 0.526737 0.509175 0.506891 0.524945 0.513029 0.515419 0.529128 0.528808
0.522861 0.563169 0.639416 0.53319 0.525433 0.53056 0.531555 0.538929 0.505317 0.529448
0.534058 0.520339 0.504894 0.506021 0.528348 0.518821 0.532774 0.64799 0.52227 0.548029
0.626143 0.530208 0.531849 0.664544 0.50476 0.506337 0.603994 0.509628 0.511531 0.525945
0.509648 0.506936 0.535364 0.527187 0.676142 0.529748 0.591426 0.53249 0.516093 0.530457
0.531706 0.528082 0.634508 0.514892 0.504328 0.506706 0.585517 0.521734 0.517186 0.522085
0.536015 0.684515 0.513617 0.51975 0.526414 0.531204 0.544001 0.514407 0.537435 0.571131
0.531055 0.531356 0.507437 0.503524 0.556218 0.518182 0.530171 0.532301 0.529172 0.530971
0.531507 0.505989 0.510045 0.521202 0.530458 0.531927 0.687154 0.529481 0.527672 0.528772
0.51226 0.627499 0.534115 0.508217 0.533254 0.530929 0.531616 0.560562 0.526819 0.584447
0.508192 0.50323 0.529773 0.535222 0.528412 0.532774 0.541121 0.519129 0.681942 0.524146
0.520629 0.52467 0.530853 0.531763 0.515354 0.523587 0.516486 0.503831 0.52513 0.530503
0.532171 0.536742 0.503114 0.504639 0.51412 0.503558 0.510717 0.553062 0.52305 0.528274
0.530073 0.68293 0.532659 0.654424 0.5272 0.508642 0.502687 0.514722 0.502728 0.505091
0.528123 0.525562 0.619042 0.708909 0.517503 0.549172 0.626341 0.530757 0.532012 0.522547
0.512844 0.671845 0.731828 0.502072 0.50566 0.506898 0.529484 0.529165 0.601887 0.526004
0.520029 0.577427 0.539465 0.51848 0.7454 0.529819 0.533957 0.547835 0.528766 0.522036
0.534923 0.530475 0.532494 0.531463 0.533182 0.506414 0.500657 0.582505 0.5313 0.531651
0.501025 0.509195 0.527593 0.511483 0.530749 0.532259 0.500915 0.526465 0.531238 0.531762
0.536167 0.74277 0.530074 0.659886 0.610326 0.528494 0.532917 0.515771 0.514569 0.521476
0.568468 0.531194 0.531823 0.507122 0.499487 0.516829 0.519428 0.520897 0.54194 0.544341
0.513306 0.526918 0.726377 0.538263 0.507528 0.53077 0.532407 0.531112 0.532035 0.530377
0.497614 0.509944 0.570052 0.517831 0.532846 0.528024 0.52949 0.502258 0.558745 0.52089
0.501282 0.503244 0.529784 0.529151 0.646671 0.507677 0.497995 0.512022 0.524272 0.49912
0.524794 0.500505 0.503921 0.727894 0.534596 0.689149 0.523783 0.533874 0.770914 0.52531
0.601606 0.531023 0.532324 0.530132 0.704373 0.527324 0.652957 0.528824 0.523322 0.535479
0.518823 0.809838 0.504566 0.499551 0.533359 0.542005 0.525787 0.620721 0.530735 0.532667
0.552171 0.515054 0.522839 0.516167 0.520325 0.510651 0.823579 0.493944 0.508364 0.495514
0.513802 0.537047 0.53036 0.497806 0.505286 0.526211 0.531718 0.528448 0.533179 0.595274
0.531543 0.531889 0.53101 0.532465 0.534774 0.632825 0.517199 0.514014 0.682282 0.562366
0.531487 0.53197 0.5223 0.52768 0.814179 0.512499 0.526615 0.500144 0.529772 0.529525
0.506084 0.495962 0.531439 0.532072 0.577354 0.800019 0.54766 0.592179 0.539939 0.518216
0.5301 0.530651 0.519777 0.529166 0.53305 0.521729 0.534563 0.491457 0.509101 0.531015
0.532551 0.776294 0.535181 0.533986 0.511184 0.531353 0.53232 0.491623 0.52705 0.659452
0.564941 0.530411 0.500635 0.506782 0.493365 0.528037 0.52882 0.499433 0.501876 0.536278
0.618543 0.515494 0.533542 0.514353 0.825224 0.498241 0.502725 0.521175 0.785241 0.51656
0.531275 0.532533 0.729432 0.711649 0.544225 0.8549 0.513068 0.681822 0.803027 0.527788
0.554588 0.496749 0.503371 0.524505 0.530976 0.532877 0.51921 0.524954 0.952814 0.509784
0.5384 0.527491 0.487173 0.530628 0.524057 0.556415 0.507133 0.517602 0.64117 0.525438
0.968604 0.533355 0.783671 0.507472 0.489727 0.581802 0.529853 0.523586 0.924146 0.634774
0.494612 0.504149 0.530052 0.51173 0.529522 0.531256 0.532601 0.525946 0.531932 0.520648
0.528431 0.532094 0.531761 0.609687 0.871603 0.671269 0.492815 0.523083 0.535123 0.534536
0.532179 0.531721 0.530407 0.602923 0.529148 0.81778 0.526411 0.541534 0.527886 0.536001
0.505137 0.492325 0.533976 0.550494 0.530898 0.532301 0.53167 0.587234 0.533262 0.7846
0.522558 0.484961 0.508178 0.518612 0.510372 0.514813 1.01076 0.531244 0.532741 0.515893
0.484528 0.52681 0.530654 0.513655 1.00847 0.748394 0.537646 0.520106 0.531556 0.532516
0.533595 0.630892 0.60845 0.516972 0.947088 0.546516 0.505905 0.488903 0.522027 0.520636
0.571631 0.702268 0.528825 0.570763 0.499005 0.851036 0.512356 0.497535 0.50051 0.528232
0.5272 0.546156 0.530117 0.529871 0.776536 0.500201 0.496009 0.501455 0.531481 0.532683
0.666061 0.540002 0.530872 0.850202 0.508937 0.585595 0.531207 0.5331 0.772097 0.480372
0.530353 0.533475 0.52946 0.951177 0.724323 0.493925 0.502146 0.712107 0.521493 0.534921
0.510973 0.560882 0.623554 0.506526 0.484109 1.06732 0.517998 0.519521 0.535668 0.534403
0.589316 0.67846 0.485709 0.663486 1.05649 0.530667 0.52762 0.531481 0.532785 0.503084
0.491083 0.941112 0.52478 0.580641 0.525201 0.537062 0.594751 0.524305 0.515226 0.53213
0.635248 0.533986 0.514129 0.532289 0.531949 0.525615 0.625564 0.75906 0.528575 0.543281
0.516332 0.529164 0.523802 0.520947 0.532369 0.53191 0.531141 0.533406 0.635471 0.526067
0.512964 0.594064 0.553551 0.5096 0.504215 0.488274 0.555388 0.537702 0.530881 0.50726
0.478373 0.47766 0.558858 0.52331 0.538986 0.532477 0.531882 0.597793 0.5749 0.531452
0.532958 0.533695 0.528037 0.513271 0.526525 0.518918 0.555405 0.567129 0.530164 0.547858
1.12604 0.511624 0.531591 0.526043 0.530362 0.529775 0.517392 1.09352 0.522824 0.531762
0.53267 0.504967 0.484358 0.493155 0.885671 0.519181 0.520375 0.578828 0.526951 0.483576
0.530644 0.535336 0.551847 0.534778 0.528932 0.497355 0.630786 0.548631 0.541477 0.499098
0.49555 0.494939 0.53111 0.508127 0.533567 0.536416 0.473446 0.52232 0.531658 0.532858
0.531402 0.533257 0.534438 0.493743 0.50013 0.446094 0.528261 0.486319 0.510208 0.528419
0.529458 0.514565 0.478893 0.91624 0.515696 0.815039 0.530889 0.527338 0.489135 1.08156
0.500962 0.491246 0.505584 0.4788 0.513448 0.474911 0.566093 0.741786 0.412584 1.14752
0.53797 0.518326 0.534104 0.507795 0.456373 1.16382 0.442153 0.519786 0.521783 0.531667
0.532983 0.685256 1.09673 0.545508 0.487621 0.502068 0.528127 0.512259 0.382625 0.547518
0.815405 0.545366 0.516789 0.400037 0.44096 0.532308 0.531357 0.527705 0.532439 0.532134
0.428378 0.530393 0.530081 0.533509 0.640837 0.508831 0.564916 0.531108 0.505652 0.52927
0.470864 0.539872 0.528756 0.532518 0.53206 0.557411 0.533792 0.523193 0.472173 0.506408
0.356193 0.530619 0.364212 0.524982 0.524095 0.525425 0.503247 0.483955 0.524511 0.510871
0.525836 0.521235 0.531658 0.533114 0.532633 0.532044 0.42445 0.535237 0.60797 0.402132
0.498397 0.524035 1.12132 0.486156 0.52973 0.536025 0.333696 0.534793 0.526225 1.17094
0.530882 0.332572 0.519207 1.18176 0.517745 0.452242 0.528069 0.523562 0.46999 0.531969
0.532826 0.515056 0.992601 0.503995 0.47948 0.537239 0.534503 0.513898 0.30752 0.526611
0.542745 0.377023 0.531338 0.394588 0.686926 0.585884 0.407401 0.551499 0.533665 0.311039
0.507335 0.509439 0.466711 0.512749 0.49575 0.523069 0.529068 0.545408 0.520683 0.531587
0.533366 0.497684 0.493564 0.531104 0.472303 0.531839 0.533013 0.284868 0.516181 0.529577
0.369516 0.53087 0.498834 0.491387 0.538633 0.52702 0.526389 0.521274 0.53415 0.35406
0.518049 0.291366 0.504692 0.473505 0.380769 0.530341 0.528453 0.511533 0.481837 0.973145
0.49503 0.499835 0.488594 0.571148 0.855123 0.522541 0.337663 0.530599 1.13729 0.264911
0.769145 1.18585 0.518647 0.53181 0.533105 0.433497 1.17018 0.497743 0.527435 0.547274
0.530865 0.705062 0.530008 0.87355 0.501057 0.48441 0.333043 0.272934 0.310945 0.531316
0.517163 0.508048 0.53153 0.520126 0.435433 0.540639 0.533624 0.535846 0.535149 0.35345
0.464183 0.247033 0.387787 0.569745 0.533868 0.532439 0.522007 0.510114 0.532566 0.532306
0.536775 0.529375 0.654817 0.534747 0.520125 0.466356 0.505592 0.561059 0.288187 0.532672
0.532214 0.514416 0.351431 0.479289 0.531086 0.479834 0.502259 0.255793 0.528829 0.527822
0.504374 0.531833 0.533217 0.31341 0.231685 0.513216 0.529841 0.532775 0.532171 0.537919
0.342076 0.534477 0.617385 0.468935 0.321527 0.269088 0.515568 1.16348 0.525165 0.521498
0.525606 1.19236 0.512039 0.518085 0.524719 0.504358 0.543984 0.531532 0.411766 0.515554
0.526037 0.240102 1.14826 0.474508 0.503066 0.519575 0.532131 0.532941 0.218177 0.533782
0.508672 0.46707 0.296967 0.295162 0.52426 0.531289 0.750837 0.506522 0.553984 0.530548
0.460429 0.250325 0.465869 0.528151 0.526428 0.592082 0.365078 0.507261 0.539397 0.436769
0.531778 0.533476 0.318014 0.534192 0.516572 0.530814 0.52378 0.494155 0.404278 0.450981
0.510809 0.496227 0.491651 0.276105 0.533104 0.532029 0.53028 0.529154 0.529687 0.205774
0.526784 0.32842 0.225763 0.497538 0.488975 0.233728 0.520994 0.440559 0.468076 0.503857
0.53563 0.278505 0.489502 0.523275 0.531078 0.536386 0.535017 0.575138 0.258757 0.304562
0.498728 0.485754 1.01467 0.890131 0.527141 0.309384 1.17199 0.531516 0.528472 0.530089
0.194377 0.531967 0.533193 0.548957 0.793134 0.513781 0.5418 1.20014 0.519035 0.507239
0.537316 0.5347 0.220318 0.212633 0.533964 0.531685 0.457795 0.533722 1.13728 0.509377
0.517514 0.279551 0.522756 0.500051 0.481191 0.232671 0.721753 0.646448 0.263509 0.51254
0.514968 0.531261 0.47252 0.313294 0.46074 0.504802 0.527538 0.532539 0.520478 0.532705
0.532413 0.563775 0.538592 0.263003 0.482395 0.183932 0.208237 0.534519 0.529442 0.6665
0.391351 0.439741 0.288442 0.5328 0.532352 0.476023 0.501288 0.200606 0.531976 0.533323
0.20891 0.499503 0.511347 0.52224 0.529972 0.387544 0.515979 0.375554 0.530737 0.528827
0.532851 0.532295 0.250064 0.244274 0.625321 0.531682 0.545448 0.527958 0.530519 0.495702
0.507903 0.196884 0.531464 0.533865 0.174329 0.53103 0.197221 1.18378 0.51849 0.459574
0.502169 0.469829 1.20112 0.540437 0.290727 0.505726 0.532231 0.533005 0.534271 0.281603
0.189544 0.454605 0.555933 1.12715 0.536107 0.535468 0.217983 0.510104 0.521742 0.519966
0.531942 0.533565 0.634621 0.530339 0.597297 0.516945 0.525323 0.536781 0.534967 0.525734
0.237751 0.305494 0.524879 0.186332 0.531256 0.481101 0.186633 0.526142 0.165052 0.492474
0.532156 0.533184 0.528322 0.489784 0.494734 0.529717 0.383963 0.524412 0.513158 0.19249
0.22628 0.462681 0.503045 0.526564 0.529186 0.486691 0.496265 0.179497 0.537784 0.514377
0.534727 0.371814 0.262807 0.523945 0.53169 0.578585 0.511894 0.543127 0.175539 0.53022
0.482836 0.497611 0.521257 0.176648 0.53404 0.506444 0.508655 0.526965 0.550409 0.413793
0.532633 0.451816 0.226318 0.181066 0.531841 0.460676 0.53212 0.533285 0.531415 1.04269
0.532481 0.532804 0.533781 0.919433 0.154928 0.515392 1.17678 0.465817 0.348789 0.523479
0.812987 1.18624 0.517929 0.532434 0.53286 0.19573 0.519455 0.499003 0.477749 0.539278
0.482623 1.09966 0.534558 0.528617 0.170404 0.527321 0.530933 0.45516 0.504018 0.734351
0.510682 0.616559 0.165148 0.532396 0.532895 0.257067 0.530716 0.169733 0.167025 0.30028
0.56616 0.523001 0.516365 0.532102 0.533394 0.145438 0.21574 0.674626 0.376688 0.500312
0.47223 0.483743 0.529504 0.531218 0.535941 0.520778 0.530001 0.53231 0.533069 0.53058
0.536453 0.535362 0.527658 0.531638 0.361828 0.50715 0.531813 0.546566 0.171607 0.155892
0.157497 0.162032 0.533922 0.453503 0.541314 0.534299 0.151185 0.630921 0.509421 0.537187
0.534935 0.522507 0.528908 0.504946 0.239709 0.449093 0.532229 0.533252 0.465539 0.501311
0.531413 1.17413 0.137879 0.512543 0.557686 0.518925 0.249077 0.472728 0.530446 0.513777
1.16467 0.205836 0.532053 0.533604 0.528021 1.05468 0.517368 0.145736 0.147033 0.16502
0.601033 0.585275 0.538269 0.534707 0.514798 0.389228 0.154435 0.520299 0.136294 0.323642
0.292243 0.511256 0.532214 0.533328 0.185042 0.532709 0.522016 0.438959 0.490726 0.532555
0.532861 0.487832 0.493294 0.529766 0.502238 0.457676 0.215344 0.367618 0.53182 0.234978
0.131034 0.532501 0.532908 0.507952 0.543833 0.484523 0.495026 0.534072 0.525422 0.136256
0.531565 0.525821 0.151992 0.505681 0.355063 0.524986 0.5284 0.530283 0.133381 0.529244
0.196262 0.465506 0.446253 0.515772 0.526195 0.531115 0.459208 0.581072 0.530902 0.551732
0.531969 0.167671 0.532466 0.532963 0.533829 0.480118 0.496441 0.524545 0.539836 0.534529
0.128949 0.510027 0.147525 0.526588 0.532194 0.533419 0.530792 1.06352 0.535734 0.53622
0.941646 0.521535 1.16787 0.187847 0.524118 0.518368 0.532379 0.533136 0.827533 0.137922
1.13709 0.497912 0.474303 0.129212 0.449703 0.503203 0.531391 0.535257 0.124791 0.536797
0.471814 0.526999 0.519789 0.930483 0.153769 0.220292 0.12034 0.743269 0.479589 0.567851
0.530666 0.516796 0.523686 0.187499 0.528748 0.17511 0.284137 0.531786 0.12231 0.532298
0.533287 0.534892 0.468288 0.499368 0.537649 0.506438 0.527389 0.680141 0.140583 0.531937
0.363267 0.530011 0.127638 0.513162 0.53213 0.533641 0.508751 0.541725 0.547456 0.53428
0.511913 0.533957 0.447687 0.529589 0.138576 0.122846 0.165194 0.531541 0.352931 0.514194
0.523225 0.521051 0.160578 0.119262 0.299496 0.113573 0.464563 0.504155 0.366021 0.44378