# vtk DataFile Version 2.0
sampleSurface
ASCII
DATASET POLYDATA
POINTS 43634 double
-9.86865e-17 0.34375 1.75
-8.63507e-17 -0.941406 1.75
1.3125 0.34375 1.75
-1.3125 0.34375 1.75
-1.3125 -0.941406 1.75
1.3125 -0.941406 1.75
-9.86865e-17 1.62891 1.75
1.3125 1.62891 1.75
-1.3125 1.62891 1.75
-7.40149e-17 -2.22656 1.75
-1.3125 -2.22656 1.75
1.3125 -2.22656 1.75
2.625 0.34375 1.75
-2.625 0.34375 1.75
-2.625 -0.941406 1.75
2.625 -0.941406 1.75
-9.86865e-17 2.91406 1.75
2.625 1.62891 1.75
-2.625 1.62891 1.75
1.3125 2.91406 1.75
-1.3125 2.91406 1.75
-2.625 -2.22656 1.75
2.625 -2.22656 1.75
-6.16791e-17 -3.51172 1.75
-1.3125 -3.51172 1.75
1.3125 -3.51172 1.75
2.625 2.91406 1.75
-2.625 2.91406 1.75
3.9375 0.34375 1.75
-3.9375 0.34375 1.75
-3.9375 -0.941406 1.75
3.9375 -0.941406 1.75
-9.86865e-17 4.19922 1.75
3.9375 1.62891 1.75
-3.9375 1.62891 1.75
-2.625 -3.51172 1.75
2.625 -3.51172 1.75
1.3125 4.19922 1.75
-1.3125 4.19922 1.75
-3.9375 -2.22656 1.75
3.9375 -2.22656 1.75
-4.93432e-17 -4.79688 1.75
3.9375 2.91406 1.75
-3.9375 2.91406 1.75
2.625 4.19922 1.75
-2.625 4.19922 1.75
1.3125 -4.79688 1.75
-1.3125 -4.79688 1.75
-5.25 0.34375 1.75
5.25 0.34375 1.75
-3.9375 -3.51172 1.75
3.9375 -3.51172 1.75
-5.25 -0.941406 1.75
5.25 -0.941406 1.75
2.625 -4.79688 1.75
-2.625 -4.79688 1.75
-9.86865e-17 5.48438 1.75
-5.25 1.62891 1.75
5.25 1.62891 1.75
1.3125 5.48438 1.75
-1.3125 5.48438 1.75
-5.25 -2.22656 1.75
5.25 -2.22656 1.75
3.9375 4.19922 1.75
-3.9375 4.19922 1.75
-5.25 2.91406 1.75
5.25 2.91406 1.75
2.625 5.48438 1.75
-2.625 5.48438 1.75
-3.70074e-17 -6.08203 1.75
3.9375 -4.79688 1.75
-3.9375 -4.79688 1.75
1.3125 -6.08203 1.75
-1.3125 -6.08203 1.75
-5.25 -3.51172 1.75
5.25 -3.51172 1.75
6.5625 0.34375 1.75
-6.5625 0.34375 1.75
2.625 -6.08203 1.75
-2.625 -6.08203 1.75
-6.5625 -0.941406 1.75
6.5625 -0.941406 1.75
-5.25 4.19922 1.75
5.25 4.19922 1.75
3.9375 5.48438 1.75
-3.9375 5.48438 1.75
6.5625 1.62891 1.75
-6.5625 1.62891 1.75
-9.86865e-17 6.76953 1.75
-1.3125 6.76953 1.75
1.3125 6.76953 1.75
-6.5625 -2.22656 1.75
6.5625 -2.22656 1.75
-5.25 -4.79688 1.75
5.25 -4.79688 1.75
6.5625 2.91406 1.75
-6.5625 2.91406 1.75
3.9375 -6.08203 1.75
-3.9375 -6.08203 1.75
-2.625 6.76953 1.75
2.625 6.76953 1.75
-2.46716e-17 -7.36719 1.75
-6.5625 -3.51172 1.75
6.5625 -3.51172 1.75
-1.3125 -7.36719 1.75
1.3125 -7.36719 1.75
-5.25 5.48438 1.75
5.25 5.48438 1.75
-6.5625 4.19922 1.75
6.5625 4.19922 1.75
2.625 -7.36719 1.75
-2.625 -7.36719 1.75
-3.9375 6.76953 1.75
3.9375 6.76953 1.75
7.875 0.34375 1.75
-7.875 0.34375 1.75
7.875 -0.941406 1.75
-7.875 -0.941406 1.75
-5.25 -6.08203 1.75
5.25 -6.08203 1.75
7.875 1.62891 1.75
-7.875 1.62891 1.75
-9.86865e-17 8.05469 1.75
-6.5625 -4.79688 1.75
6.5625 -4.79688 1.75
-1.3125 8.05469 1.75
1.3125 8.05469 1.75
-7.875 -2.22656 1.75
7.875 -2.22656 1.75
3.9375 -7.36719 1.75
-3.9375 -7.36719 1.75
-7.875 2.91406 1.75
7.875 2.91406 1.75
-2.625 8.05469 1.75
2.625 8.05469 1.75
-6.5625 5.48438 1.75
6.5625 5.48438 1.75
-5.25 6.76953 1.75
5.25 6.76953 1.75
-7.875 -3.51172 1.75
7.875 -3.51172 1.75
-1.23358e-17 -8.65234 1.75
1.3125 -8.65234 1.75
-1.3125 -8.65234 1.75
-7.875 4.19922 1.75
7.875 4.19922 1.75
-6.5625 -6.08203 1.75
6.5625 -6.08203 1.75
-3.9375 8.05469 1.75
3.9375 8.05469 1.75
2.625 -8.65234 1.75
-2.625 -8.65234 1.75
-5.25 -7.36719 1.75
5.25 -7.36719 1.75
-9.1875 0.34375 1.75
9.1875 0.34375 1.75
-7.875 -4.79688 1.75
7.875 -4.79688 1.75
-9.1875 -0.941406 1.75
9.1875 -0.941406 1.75
-9.1875 1.62891 1.75
9.1875 1.62891 1.75
-9.86865e-17 9.33984 1.75
6.5625 6.76953 1.75
-6.5625 6.76953 1.75
-1.3125 9.33984 1.75
1.3125 9.33984 1.75
-9.1875 -2.22656 1.75
9.1875 -2.22656 1.75
3.9375 -8.65234 1.75
-3.9375 -8.65234 1.75
-7.875 5.48438 1.75
7.875 5.48438 1.75
-5.25 8.05469 1.75
5.25 8.05469 1.75
-9.1875 2.91406 1.75
9.1875 2.91406 1.75
-2.625 9.33984 1.75
2.625 9.33984 1.75
-9.1875 -3.51172 1.75
9.1875 -3.51172 1.75
6.5625 -7.36719 1.75
-6.5625 -7.36719 1.75
0 -9.9375 1.75
7.875 -6.08203 1.75
-7.875 -6.08203 1.75
1.3125 -9.9375 1.75
-1.3125 -9.9375 1.75
-9.1875 4.19922 1.75
9.1875 4.19922 1.75
-5.25 -8.65234 1.75
5.25 -8.65234 1.75
-3.9375 9.33984 1.75
3.9375 9.33984 1.75
2.625 -9.9375 1.75
-2.625 -9.9375 1.75
-9.1875 -4.79688 1.75
9.1875 -4.79688 1.75
-7.875 6.76953 1.75
7.875 6.76953 1.75
6.5625 8.05469 1.75
-6.5625 8.05469 1.75
10.5 0.34375 1.75
-10.5 0.34375 1.75
-10.5 -0.941406 1.75
10.5 -0.941406 1.75
-9.86865e-17 10.625 1.75
10.5 1.62891 1.75
-10.5 1.62891 1.75
3.9375 -9.9375 1.75
-3.9375 -9.9375 1.75
-9.1875 5.48438 1.75
9.1875 5.48438 1.75
1.3125 10.625 1.75
-1.3125 10.625 1.75
-5.25 9.33984 1.75
5.25 9.33984 1.75
-10.5 -2.22656 1.75
10.5 -2.22656 1.75
-7.875 -7.36719 1.75
7.875 -7.36719 1.75
6.5625 -8.65234 1.75
-6.5625 -8.65234 1.75
10.5 2.91406 1.75
-10.5 2.91406 1.75
2.625 10.625 1.75
-2.625 10.625 1.75
9.1875 -6.08203 1.75
-9.1875 -6.08203 1.75
-10.5 -3.51172 1.75
10.5 -3.51172 1.75
-2.46716e-17 -11.2227 1.75
-5.25 -9.9375 1.75
5.25 -9.9375 1.75
7.875 8.05469 1.75
-7.875 8.05469 1.75
-1.3125 -11.2227 1.75
1.3125 -11.2227 1.75
10.5 4.19922 1.75
-10.5 4.19922 1.75
3.9375 10.625 1.75
-3.9375 10.625 1.75
-9.1875 6.76953 1.75
9.1875 6.76953 1.75
-6.5625 9.33984 1.75
6.5625 9.33984 1.75
-2.625 -11.2227 1.75
2.625 -11.2227 1.75
-10.5 -4.79688 1.75
10.5 -4.79688 1.75
-7.875 -8.65234 1.75
7.875 -8.65234 1.75
-11.7611 0.34375 1.75
-9.1875 -7.36719 1.75
9.1875 -7.36719 1.75
-11.7611 -0.941406 1.75
11.8125 0.34375 1.75
10.5 5.48438 1.75
-10.5 5.48438 1.75
11.8125 -0.941406 1.75
-5.25 10.625 1.75
5.25 10.625 1.75
-11.7611 1.62891 1.75
-3.9375 -11.2227 1.75
3.9375 -11.2227 1.75
-6.5625 -9.9375 1.75
6.5625 -9.9375 1.75
-8.63507e-17 11.9102 1.75
11.8125 1.62891 1.75
-11.7611 -2.22656 1.75
1.3125 11.9102 1.75
-1.3125 11.9102 1.75
11.8125 -2.22656 1.75
-11.7611 2.91406 1.75
-10.5 -6.08203 1.75
10.5 -6.08203 1.75
11.8125 2.91406 1.75
2.625 11.9102 1.75
-2.625 11.9102 1.75
7.875 9.33984 1.75
-7.875 9.33984 1.75
-9.1875 8.05469 1.75
9.1875 8.05469 1.75
-11.7611 -3.51172 1.75
11.8125 -3.51172 1.75
-5.25 -11.2227 1.75
5.25 -11.2227 1.75
-6.5625 10.625 1.75
6.5625 10.625 1.75
-11.7611 4.19922 1.75
10.5 6.76953 1.75
-10.5 6.76953 1.75
-4.93432e-17 -12.5078 1.75
11.8125 4.19922 1.75
3.9375 11.9102 1.75
-3.9375 11.9102 1.75
-1.3125 -12.5078 1.75
1.3125 -12.5078 1.75
9.1875 -8.65234 1.75
-9.1875 -8.65234 1.75
-7.875 -9.9375 1.75
7.875 -9.9375 1.75
-11.7611 -4.79688 1.75
11.8125 -4.79688 1.75
-2.625 -12.5078 1.75
2.625 -12.5078 1.75
-10.5 -7.36719 1.75
10.5 -7.36719 1.75
-11.7611 5.48438 1.75
6.5625 -11.2227 1.75
-6.5625 -11.2227 1.75
-5.25 11.9102 1.75
5.25 11.9102 1.75
11.8125 5.48438 1.75
-13.0222 0.34375 1.75
-13.0222 -0.941406 1.75
-9.1875 9.33984 1.75
9.1875 9.33984 1.75
3.9375 -12.5078 1.75
-3.9375 -12.5078 1.75
-13.0222 1.62891 1.75
13.125 0.34375 1.75
13.125 -0.941406 1.75
-7.40149e-17 13.1953 1.75
-13.0222 -2.22656 1.75
7.875 10.625 1.75
-7.875 10.625 1.75
13.125 1.62891 1.75
10.5 8.05469 1.75
-10.5 8.05469 1.75
-11.7611 -6.08203 1.75
1.3125 13.1953 1.75
-1.3125 13.1953 1.75
11.8125 -6.08203 1.75
13.125 -2.22656 1.75
-13.0222 2.91406 1.75
13.125 2.91406 1.75
2.625 13.1953 1.75
-2.625 13.1953 1.75
-13.0222 -3.51172 1.75
-9.1875 -9.9375 1.75
9.1875 -9.9375 1.75
5.25 -12.5078 1.75
-5.25 -12.5078 1.75
-11.7611 6.76953 1.75
13.125 -3.51172 1.75
-6.5625 11.9102 1.75
6.5625 11.9102 1.75
-10.5 -8.65234 1.75
10.5 -8.65234 1.75
11.8125 6.76953 1.75
-13.0222 4.19922 1.75
-7.875 -11.2227 1.75
7.875 -11.2227 1.75
3.9375 13.1953 1.75
-3.9375 13.1953 1.75
13.125 4.19922 1.75
-7.40149e-17 -13.793 1.75
-1.3125 -13.793 1.75
1.3125 -13.793 1.75
-13.0222 -4.79688 1.75
-11.7611 -7.36719 1.75
11.8125 -7.36719 1.75
13.125 -4.79688 1.75
-2.625 -13.793 1.75
2.625 -13.793 1.75
-9.1875 10.625 1.75
9.1875 10.625 1.75
10.5 9.33984 1.75
-10.5 9.33984 1.75
-6.5625 -12.5078 1.75
6.5625 -12.5078 1.75
-13.0222 5.48438 1.75
-5.25 13.1953 1.75
5.25 13.1953 1.75
13.125 5.48438 1.75
-11.7611 8.05469 1.75
-7.875 11.9102 1.75
7.875 11.9102 1.75
-14.2833 0.34375 1.75
11.8125 8.05469 1.75
-14.2833 -0.941406 1.75
3.9375 -13.793 1.75
-3.9375 -13.793 1.75
-13.0222 -6.08203 1.75
-14.2833 1.62891 1.75
14.4375 0.34375 1.75
-14.2833 -2.22656 1.75
-10.5 -9.9375 1.75
10.5 -9.9375 1.75
13.125 -6.08203 1.75
14.4375 -0.941406 1.75
-6.16791e-17 14.4805 1.75
-9.1875 -11.2227 1.75
9.1875 -11.2227 1.75
14.4375 1.62891 1.75
1.3125 14.4805 1.75
-1.3125 14.4805 1.75
-14.2833 2.91406 1.75
-11.7611 -8.65234 1.75
14.4375 -2.22656 1.75
11.8125 -8.65234 1.75
-13.0222 6.76953 1.75
-14.2833 -3.51172 1.75
2.625 14.4805 1.75
-2.625 14.4805 1.75
14.4375 2.91406 1.75
-6.5625 13.1953 1.75
6.5625 13.1953 1.75
5.25 -13.793 1.75
-5.25 -13.793 1.75
13.125 6.76953 1.75
-7.875 -12.5078 1.75
7.875 -12.5078 1.75
14.4375 -3.51172 1.75
-14.2833 4.19922 1.75
10.5 10.625 1.75
-10.5 10.625 1.75
-13.0222 -7.36719 1.75
3.9375 14.4805 1.75
-3.9375 14.4805 1.75
-11.7611 9.33984 1.75
14.4375 4.19922 1.75
9.1875 11.9102 1.75
-9.1875 11.9102 1.75
13.125 -7.36719 1.75
11.8125 9.33984 1.75
-14.2833 -4.79688 1.75
-9.86865e-17 -15.0781 1.75
1.3125 -15.0781 1.75
-1.3125 -15.0781 1.75
14.4375 -4.79688 1.75
-6.5625 -13.793 1.75
6.5625 -13.793 1.75
-14.2833 5.48438 1.75
2.625 -15.0781 1.75
-2.625 -15.0781 1.75
-13.0222 8.05469 1.75
-7.875 13.1953 1.75
7.875 13.1953 1.75
-10.5 -11.2227 1.75
10.5 -11.2227 1.75
-11.7611 -9.9375 1.75
13.125 8.05469 1.75
5.25 14.4805 1.75
-5.25 14.4805 1.75
11.8125 -9.9375 1.75
14.4375 5.48438 1.75
9.1875 -12.5078 1.75
-9.1875 -12.5078 1.75
-14.2833 -6.08203 1.75
-15.5445 0.34375 1.75
-15.5445 -0.941406 1.75
-3.9375 -15.0781 1.75
3.9375 -15.0781 1.75
-15.5445 1.62891 1.75
-13.0222 -8.65234 1.75
14.4375 -6.08203 1.75
-15.5445 -2.22656 1.75
13.125 -8.65234 1.75
15.75 0.34375 1.75
-4.93432e-17 15.7656 1.75
15.75 -0.941406 1.75
-14.2833 6.76953 1.75
-15.5445 2.91406 1.75
1.3125 15.7656 1.75
-1.3125 15.7656 1.75
15.75 1.62891 1.75
-11.7611 10.625 1.75
10.5 11.9102 1.75
-10.5 11.9102 1.75
7.875 -13.793 1.75
-7.875 -13.793 1.75
11.8125 10.625 1.75
-6.5625 14.4805 1.75
6.5625 14.4805 1.75
[...]
POINT_DATA 43634
FIELD attributes 1
U 3 43634 float
-0.434239 4.10489 0.00374565
-0.425511 4.08063 0.00285014
-0.464418 4.09502 0.00501086
-0.407398 4.11265 0.00343916
-0.399228 4.08979 0.00264604
-0.45412 4.06887 0.00504785
-0.441971 4.12951 0.00520511
-0.472853 4.12178 0.00572014
-0.414254 4.13634 0.00389365
-0.415594 4.05735 0.00281591
-0.390235 4.06808 0.00181171
-0.441895 4.04457 0.00514827
-0.496597 4.08276 0.00794191
-0.382524 4.12015 0.00149438
-0.375738 4.0979 0.00157867
-0.483761 4.05563 0.00726816
-0.448488 4.15463 0.00623071
-0.507331 4.11148 0.00811088
-0.387777 4.14285 0.00177634
-0.479861 4.14852 0.00706811
-0.419346 4.16056 0.00398736
-0.367567 4.07691 0.00140389
-0.469605 4.03079 0.00616076
-0.404337 4.0352 0.00259582
-0.380672 4.04709 0.000910422
-0.428382 4.02207 0.00403739
-0.515599 4.14093 0.00825945
-0.391795 4.16549 0.00256183
-0.530825 4.06969 0.00942645
-0.358849 4.12669 3.93934e-06
-0.353454 4.10562 -0.000418667
-0.516601 4.04143 0.00774636
-0.453229 4.18078 0.00619817
-0.543811 4.09946 0.0109835
-0.363469 4.14783 0.00114996
-0.358596 4.05702 0.000295118
-0.454843 4.0074 0.00451056
-0.485557 4.17579 0.00816731
-0.422648 4.18524 0.00398163
-0.34691 4.08523 -0.000243137
-0.50127 4.0149 0.00706219
-0.391768 4.01411 0.0020906
-0.55469 4.13082 0.0115089
-0.367416 4.16905 0.00221787
-0.521602 4.17069 0.00876198
-0.394886 4.18828 0.00340492
-0.414212 4.00068 0.00250073
-0.370266 4.02651 0.000573903
-0.337541 4.13168 -0.000165559
-0.569432 4.05506 0.00947058
-0.339122 4.06566 -0.000471527
-0.484625 3.98967 0.00662297
-0.332394 4.1119 -0.00116348
-0.553677 4.02433 0.00886542
-0.439395 3.98468 0.00358875
-0.349211 4.03761 -0.000848764
-0.455764 4.20789 0.0061098
-0.342022 4.15191 0.000649954
-0.583469 4.08691 0.0114186
-0.489471 4.20425 0.00895028
-0.424493 4.2102 0.00470602
-0.326745 4.0927 -0.00176544
-0.535509 3.99575 0.009473
-0.562467 4.16362 0.0110185
-0.370341 4.19087 0.00241959
-0.345353 4.17254 0.000791649
-0.596015 4.11989 0.0135878
-0.525681 4.20088 0.010283
-0.39696 4.21161 0.00415973
-0.378463 3.99439 0.00111426
-0.466321 3.96579 0.00637993
-0.330385 4.0468 -0.00111122
-0.399839 3.98027 0.00129117
-0.358845 4.00685 0.000492857
-0.320464 4.0738 -0.00205535
-0.515231 3.96939 0.00902278
-0.612201 4.03647 0.0120778
-0.318342 4.13622 -0.00101981
-0.423068 3.96322 0.00334568
-0.339485 4.01862 -0.00143239
-0.313558 4.11693 -0.00125052
-0.592739 4.00367 0.012136
-0.347181 4.19357 0.000448712
-0.606161 4.15468 0.0144374
-0.566869 4.19715 0.0112298
-0.371723 4.2134 0.00222579
-0.628599 4.07152 0.0125571
-0.321914 4.15595 -0.000936983
-0.456161 4.2347 0.00680898
-0.425095 4.23479 0.00604289
-0.490947 4.23313 0.00946552
-0.308059 4.0985 -0.00173306
-0.570546 3.97399 0.0119207
-0.313258 4.05511 -0.00198136
-0.493668 3.94521 0.00753785
-0.64226 4.10797 0.0141466
-0.324156 4.17566 -0.000838624
-0.446889 3.9442 0.00559152
-0.321292 4.02866 -0.00203067
-0.397542 4.23508 0.00462272
-0.527836 4.23109 0.0121565
-0.364974 3.97616 9.36889e-05
-0.302352 4.08059 -0.00260256
-0.547047 3.94683 0.0100402
-0.346578 3.98872 0.000226326
-0.385135 3.96124 0.000962338
-0.347616 4.21478 0.000606323
-0.612608 4.19134 0.0144652
-0.325376 4.19529 -0.000471135
-0.653349 4.14541 0.0160089
-0.40578 3.94392 0.00335828
-0.329165 4.00055 -0.0013847
-0.371378 4.23574 0.0023991
-0.568461 4.22987 0.0128703
-0.657156 4.01491 0.015376
-0.299745 4.1407 -0.00267353
-0.633932 3.98079 0.0139968
-0.29612 4.12186 -0.00244082
-0.305147 4.03713 -0.00212701
-0.471958 3.92361 0.00557849
-0.677828 4.05213 0.0161805
-0.302478 4.15942 -0.00224183
-0.454931 4.26067 0.00797466
-0.296383 4.06275 -0.00317634
-0.523118 3.92193 0.0080456
-0.424381 4.2591 0.00686071
-0.489876 4.26167 0.00964009
-0.291522 4.10362 -0.00212582
-0.608792 3.94934 0.0129316
-0.427124 3.92523 0.00458608
-0.312124 4.01134 -0.00274861
-0.304545 4.17779 -0.00138637
-0.694745 4.09276 0.0165684
-0.396293 4.25836 0.00460241
-0.527823 4.26146 0.0129439
-0.325945 4.21506 0.000382712
-0.661436 4.18423 0.0177159
-0.347094 4.23553 0.0015888
-0.614866 4.22791 0.0147062
-0.286194 4.08615 -0.00271045
-0.582407 3.92035 0.0113921
-0.351597 3.95892 -0.000993639
-0.369906 3.94349 0.000650215
-0.334053 3.97192 -0.000896491
-0.306056 4.19631 -0.000658484
-0.707176 4.13523 0.0168938
-0.289739 4.04516 -0.00328663
-0.499113 3.8997 0.00675969
-0.369673 4.25739 0.00303584
-0.568141 4.26183 0.0147998
-0.388019 3.92643 0.00244236
-0.318161 3.98356 -0.0016509
-0.296472 4.02029 -0.00277496
-0.450392 3.90425 0.00475697
-0.282275 4.14406 -0.00312387
-0.706456 3.99147 0.0161705
-0.28042 4.06917 -0.00380223
-0.555015 3.89457 0.0102699
-0.279398 4.12625 -0.00356876
-0.680404 3.95432 0.0151762
-0.284912 4.16177 -0.00239714
-0.730616 4.03072 0.0183798
-0.4523 4.28613 0.00910486
-0.665711 4.22373 0.0185989
-0.325871 4.23483 0.00121154
-0.421912 4.28348 0.00683523
-0.486551 4.28948 0.0101367
-0.275958 4.10868 -0.00361434
-0.65167 3.91976 0.0154971
-0.407642 3.90771 0.00315601
-0.302786 3.99463 -0.00333758
-0.306803 4.21543 -0.000279052
-0.715437 4.17793 0.0184689
-0.345927 4.25579 0.0025869
-0.613851 4.26328 0.0156328
-0.287146 4.17948 -0.00192203
-0.751717 4.07418 0.0204113
-0.393236 4.28134 0.00460841
-0.525079 4.2919 0.0127673
-0.27156 4.0915 -0.0038401
-0.620536 3.88944 0.01427
-0.474546 3.87983 0.00689024
-0.282164 4.02835 -0.0032383
-0.338009 3.94212 -0.00139372
-0.527183 3.87216 0.0093601
-0.274367 4.05248 -0.00462377
-0.354025 3.92668 0.000310921
-0.321608 3.9557 -0.00204105
-0.288508 4.19759 -0.00190674
-0.767544 4.12175 0.0203706
-0.287721 4.00425 -0.00394969
-0.428731 3.88621 0.00415058
-0.366984 4.27858 0.00396708
-0.565831 4.29386 0.0160515
-0.370226 3.90989 0.00118299
-0.306621 3.9674 -0.00228198
-0.26618 4.0747 -0.00424753
-0.588352 3.86372 0.0124919
-0.306389 4.23471 -0.000264343
-0.720181 4.21988 0.0209486
-0.665876 4.26334 0.0185132
-0.324804 4.25453 0.00128797
-0.762007 3.96384 0.0166052
-0.267069 4.14648 -0.00308439
-0.264152 4.12948 -0.00382783
-0.731111 3.92216 0.0174823
-0.448149 4.3116 0.00978279
-0.789479 4.00748 0.0177309
-0.269416 4.16382 -0.00285248
-0.388291 3.89095 0.0021348
-0.292911 3.97834 -0.00351176
-0.288628 4.21613 -0.00195246
-0.777127 4.17069 0.0197013
-0.48154 4.31649 0.011384
-0.41745 4.30783 0.00662982
-0.343856 4.27606 0.00299427
-0.610417 4.29753 0.0176136
-0.260826 4.11291 -0.00461465
-0.696405 3.88544 0.0178068
-0.26797 4.0361 -0.00476183
-0.498783 3.85233 0.00909695
-0.449461 3.86197 0.00604428
-0.273955 4.01236 -0.00375408
-0.813275 4.05419 0.0212804
-0.270922 4.1813 -0.00315686
-0.519527 4.32174 0.012735
-0.388845 4.30387 0.00525343
-0.556486 3.8413 0.01115
-0.260274 4.05841 -0.00477484
-0.257068 4.09644 -0.00518632
-0.659859 3.85502 0.014844
-0.323996 3.92615 -0.00156025
-0.279006 3.98844 -0.00473418
-0.406719 3.86967 0.00333685
-0.721627 4.26241 0.0225027
-0.304663 4.25361 -0.000425086
-0.309319 3.93998 -0.00275753
-0.337995 3.91114 -0.000668055
-0.83219 4.10574 0.023403
-0.271487 4.19882 -0.00341334
-0.560892 4.32608 0.0162295
-0.363449 4.29972 0.00481692
-0.287566 4.2344 -0.00166776
-0.781395 4.2175 0.0206678
-0.322353 4.27417 0.000884333
-0.661874 4.30194 0.0190353
-0.295048 3.95206 -0.00327479
-0.352949 3.89456 -0.000237257
-0.252739 4.07987 -0.00520263
-0.623331 3.82905 0.012531
-0.261092 4.02004 -0.00476625
-0.470441 3.83511 0.00731761
-0.253453 4.14891 -0.00406895
-0.254313 4.04265 -0.00530898
-0.524443 3.82151 0.0107878
-0.250769 4.13211 -0.0041911
-0.822354 3.92951 0.0197585
-0.844955 4.16101 0.0228301
-0.271244 4.21629 -0.00297148
-0.783993 3.88423 0.0202945
-0.340424 4.29651 0.00291722
-0.604935 4.33126 0.0196658
-0.255053 4.16589 -0.00404462
-0.282461 3.96279 -0.00372121
-0.36924 3.87582 0.00119999
-0.265602 3.99691 -0.00460457
-0.424589 3.84636 0.00420148
-0.442007 4.33653 0.010156
-0.855694 3.97954 0.0191154
-0.2473 4.11591 -0.00452376
-0.475022 4.34238 0.0130633
-0.411144 4.33119 0.00713121
-0.742974 3.84691 0.0189334
-0.255763 4.18263 -0.00396861
-0.247789 4.06354 -0.00498226
-0.587213 3.80602 0.0120251
-0.88239 4.03225 0.021203
-0.511604 4.3497 0.0139615
-0.383487 4.32547 0.00651814
-0.718631 4.30547 0.0230154
-0.301882 4.27203 -0.000246304
-0.285745 4.25205 -0.0010468
-0.781913 4.26314 0.0233213
-0.243588 4.10009 -0.0051874
-0.701763 3.81581 0.0153735
-0.270117 3.97289 -0.00492032
-0.3852 3.85537 0.00201337
-0.318549 4.29352 0.000852214
-0.65451 4.33865 0.0207645
-0.256043 4.19916 -0.00363101
-0.850842 4.21493 0.0218646
-0.270427 4.23339 -0.00199041
-0.309682 3.91162 -0.00193355
-0.903086 4.08838 0.0237567
-0.552676 4.35695 0.0162728
-0.358759 4.32051 0.00527842
-0.296926 3.92511 -0.00288383
-0.322383 3.89716 -0.00188835
-0.492802 3.80506 0.00871204
-0.248421 4.02714 -0.00591237
-0.25364 4.00441 -0.00489633
-0.443199 3.82036 0.00525509
-0.239889 4.08424 -0.0057132
-0.660144 3.78826 0.0143493
-0.283745 3.93752 -0.00409605
-0.336245 3.88074 -0.00105471
-0.242307 4.04793 -0.0051208
-0.55072 3.78664 0.0118384
-0.256114 4.21576 -0.00298254
-0.401008 3.8328 0.00261174
-0.257437 3.98185 -0.00543573
-0.335383 4.31644 0.00293289
-0.596841 4.36399 0.0210492
-0.918486 4.14941 0.0247916
-0.23987 4.15125 -0.00532466
-0.237919 4.13481 -0.00523548
-0.283491 4.26942 -0.000334842
-0.778508 4.30937 0.0264475
-0.350485 3.86245 0.000725864
-0.27177 3.94826 -0.00424487
-0.241154 4.16743 -0.00482831
-0.886548 3.88901 0.0226459
-0.840703 3.8417 0.0208084
-0.433834 4.36037 0.0101192
-0.235182 4.11867 -0.0048786
-0.710667 4.34705 0.0228591
-0.298515 4.2901 0.000492747
-0.927923 3.94536 0.0220735
-0.850144 4.26595 0.0231393
-0.269152 4.25026 -0.00123902
-0.236002 4.06838 -0.0058219
-0.466922 4.36737 0.0137199
-0.403623 4.35315 0.00800718
-0.617889 3.76505 0.0143626
-0.793967 3.80306 0.0192615
-0.242023 4.18325 -0.0040788
-0.96016 4.00705 0.0212079
-0.50219 4.37574 0.0155378
-0.377245 4.34624 0.00723212
-0.231826 4.10303 -0.00503485
-0.242259 4.0117 -0.00613443
-0.462642 3.79113 0.00699426
-0.364333 3.84261 0.00130273
-0.260773 3.95804 -0.00478647
-0.255733 4.23239 -0.00243882
-0.746795 3.76924 0.0178604
-0.313732 4.31204 0.00163041
-0.644617 4.37293 0.0235883
-0.236613 4.03294 -0.00599659
-0.515195 3.7714 0.00916538
-0.926943 4.21148 0.0243793
-0.242603 4.19914 -0.00356487
-0.24586 3.98948 -0.00546472
-0.417307 3.80728 0.00429389
-0.541659 4.3855 0.0165268
-0.352605 4.34067 0.00503996
-0.983223 4.07041 0.0213601
-0.295617 3.89842 -0.00309604
-0.284342 3.91128 -0.00324885
-0.307517 3.88419 -0.00309078
-0.228165 4.0877 -0.00572581
-0.231486 4.05284 -0.00567004
-0.576109 3.74732 0.0132543
-0.697574 3.74045 0.0178619
-0.272714 3.92356 -0.00477249
-0.319884 3.86787 -0.00150168
-0.28078 4.2869 9.21149e-05
-0.770483 4.35539 0.0271922
-0.843784 4.31573 0.0274818
-0.267211 4.26725 -0.00113618
-0.249349 3.96723 -0.00575879
-0.378076 3.82045 0.00230176
-0.242693 4.21545 -0.00344994
-0.329099 4.33536 0.00316551
-0.585688 4.39523 0.0208595
-0.999635 4.13747 0.0235692
-0.254495 4.24899 -0.00241776
-0.294665 4.30771 0.00141432
-0.698326 4.38479 0.0240417
-0.227071 4.1527 -0.00544255
-0.926084 4.27058 0.0240215
-0.225483 4.13708 -0.00586833
-0.331945 3.85008 0.000137394
-0.261339 3.93451 -0.00534328
-0.224449 4.07256 -0.00647403
-0.228531 4.16822 -0.00482276
-0.956562 3.84273 0.0227861
-0.223584 4.12155 -0.005884
-0.23093 4.01813 -0.00685288
-0.48152 3.75864 0.00773911
-0.648168 3.71915 0.0162532
-0.903919 3.79285 0.0200728
-0.424017 4.38287 0.0105588
-0.235526 3.99664 -0.00612902
-0.433608 3.77896 0.00636822
-1.00633 3.90424 0.0240114
-0.456878 4.39157 0.0136702
-0.395246 4.37403 0.00902693
-0.229677 4.18373 -0.00445418
-0.226255 4.03782 -0.00593788
-0.849981 3.75069 0.0210991
-0.536725 3.73385 0.0100948
-0.241939 4.23183 -0.00358198
-0.221048 4.10613 -0.00583938
-0.491553 4.4007 0.0168814
-0.369754 4.36649 0.00722519
-1.04672 3.97597 0.021707
-0.308362 4.32972 0.00252596
-0.632726 4.40558 0.0252438
-0.343881 3.83088 0.000438092
-0.251091 3.94401 -0.00521964
-1.00903 4.20787 0.0256954
-0.238148 3.97527 -0.00622154
-0.391573 3.79574 0.00402825
-0.793466 3.71433 0.0215171
-0.230148 4.19947 -0.00449212
-0.833419 4.36536 0.0305062
-0.264299 4.28437 -0.00144199
-0.220589 4.05755 -0.00677626
-0.528825 4.41184 0.0179615
-0.34498 4.36002 0.00487007
-0.252175 4.26551 -0.00268052
-1.0741 4.05026 0.0177266
-0.757167 4.39788 0.0265722
-0.27718 4.30417 0.00016578
-0.601498 3.70379 0.0140359
-0.916417 4.32571 0.0267204
-0.217745 4.09084 -0.00596682
-0.282086 3.88574 -0.00421297
-0.29301 3.87143 -0.00352889
-0.271673 3.89821 -0.00387223
-0.735178 3.68703 0.0200897
-0.241055 3.95301 -0.00589319
-0.355543 3.80967 0.00120157
-0.229716 4.21541 -0.00461528
-0.303424 3.85545 -0.00175756
-0.261617 3.90999 -0.00499503
-0.240251 4.24785 -0.00365957
-0.290094 4.32493 0.00168797
-0.683436 4.41902 0.026158
-0.225173 4.00341 -0.00719571
-0.448954 3.74806 0.00713
-0.220645 4.02323 -0.00661964
-1.00798 4.27719 0.0245411
-0.571476 4.42431 0.0207331
-0.322108 4.35332 0.00386822
-0.499217 3.72263 0.00907379
-1.09032 4.12611 0.0182454
-0.404861 3.76898 0.00535927
-0.22832 3.98231 -0.00633105
-0.213971 4.07587 -0.00645035
-0.215922 4.15364 -0.00527743
-0.214218 4.1386 -0.00585138
-0.251293 3.92105 -0.00619917
-0.313669 3.83853 -0.000840262
-0.217181 4.16898 -0.00512322
-0.216276 4.04265 -0.0068908
-0.679559 3.66875 0.0166169
-0.212284 4.12387 -0.0064695
-0.557953 3.69177 0.0117751
-1.03299 3.78868 0.0186942
-0.41323 4.40401 0.0115632
-0.971882 3.73379 0.018245
-0.228485 4.23105 -0.004416
-0.217787 4.18442 -0.0053675
-0.444964 4.41458 0.0135596
-0.385978 4.3943 0.00948088
-1.09093 3.85596 0.0209545
-0.248955 4.28176 -0.00264205
-0.81915 4.41225 0.0308207
-0.260316 4.30095 -0.00148069
-0.366765 3.7864 0.00224233
-0.230695 3.96141 -0.00696961
-0.901905 4.3788 0.0298333
-0.302474 4.347 0.00301153
-0.618379 4.43693 0.0256015
-0.907119 3.68783 0.0221593
-0.210157 4.10907 -0.00684682
-1.09757 4.20526 0.022954
-0.241438 3.93058 -0.00608386
-0.324214 3.82027 -0.000860498
-0.479469 4.425 0.0171319
-0.360739 4.38619 0.00684952
-1.14044 3.93776 0.0199254
-0.237877 4.26344 -0.00335092
-0.210116 4.06135 -0.00712571
-0.272431 4.32089 -5.64788e-05
-0.739435 4.43543 0.0261905
-0.217718 4.1998 -0.00556118
-0.995458 4.34037 0.0238468
-0.839124 3.65196 0.021634
-0.628034 3.65475 0.0153262
-0.515103 4.43667 0.019697
-0.336334 4.3784 0.00529557
-0.215062 4.00895 -0.00741414
-0.207614 4.09396 -0.00679573
-0.462893 3.71395 0.00813721
-1.17461 4.02618 0.0134336
-0.219038 3.98898 -0.00713531
-0.417546 3.73988 0.00541833
-0.269071 3.87338 -0.00497222
-0.211319 4.02794 -0.00700415
-0.22683 4.24618 -0.00388842
-0.278504 3.85927 -0.00385554
-0.259316 3.88582 -0.00484185
-0.232365 3.9392 -0.00604635
-0.334341 3.80008 -0.000266881
-0.515895 3.6823 0.0113994
-0.772609 3.62775 0.0183573
-0.284411 4.34186 0.00140946
-0.667096 4.45131 0.0287826
-0.217127 4.21496 -0.0052428
-1.09438 4.2852 0.0233266
-0.250357 3.89708 -0.00524278
-0.287163 3.8442 -0.0028464
-0.378038 3.7611 0.00314437
-0.221069 3.96862 -0.00717598
-0.314747 4.37068 0.00463505
-0.555185 4.45083 0.0215993
-1.19118 4.11611 0.00948722
-0.20445 4.0789 -0.00668931
-0.206269 4.047 -0.00779465
-0.24522 4.29737 -0.00202778
-0.884599 4.42964 0.0318067
-0.235146 4.27879 -0.00268367
-0.205581 4.15486 -0.00607265
-0.296382 3.82819 -0.00251546
-0.241453 3.9079 -0.0065508
-0.578634 3.6441 0.014701
-0.204018 4.13994 -0.00615483
-0.800214 4.45393 0.0290938
-0.255614 4.31668 -0.00110164
-0.711056 3.61089 0.0159425
-0.206269 4.1699 -0.00597822
-0.975725 4.39768 0.0253489
-0.201864 4.12543 -0.00635999
-0.216215 4.22975 -0.00449416
-0.223218 3.94761 -0.00727066
-0.343963 3.77785 0.000902223
-0.401719 4.42375 0.0129013
-0.206281 4.18474 -0.00581739
-0.224975 4.26111 -0.00332549
-1.11605 3.72374 0.0147747
-0.295774 4.36409 0.0027988
-0.60114 4.46623 0.024974
-1.04246 3.66236 0.0180701
-0.375392 4.41371 0.00951001
-0.431629 4.43555 0.0144839
-1.18336 3.79925 0.0148781
-1.19308 4.20703 0.013584
-0.718968 4.46913 0.0285825
-0.266663 4.33692 1.65121e-06
-0.199623 4.11108 -0.00686305
-0.209565 3.9949 -0.00786466
-0.232205 3.91761 -0.00701628
-0.305901 3.81054 -0.00223292
-0.20592 4.01365 -0.00735646
-1.0787 4.35847 0.0198999
-0.200738 4.0644 -0.0069542
-0.428894 3.70769 0.00604411
-0.963506 3.61445 0.0228781
-0.465413 4.44775 0.0170185
-0.350341 4.40462 0.00706667
-0.475612 3.67611 0.00966982
-1.24221 3.89252 0.0147698
-0.206047 4.19938 -0.00552585
-0.212428 3.97502 -0.00736222
-0.388714 3.73345 0.00331616
-0.652579 3.59805 0.0170147
-0.202187 4.03254 -0.00799846
-0.88377 3.58094 0.020477
-0.197458 4.09656 -0.0073359
-0.500409 4.46013 0.0209446
-0.327139 4.39555 0.00645658
-0.215036 4.24437 -0.00391618
-0.531029 3.63774 0.01382
-1.2846 3.99835 0.00803554
-0.277572 4.35829 0.00108523
-0.649179 4.4823 0.0296581
-0.22354 3.92604 -0.00663903
-0.314452 3.79101 -0.00122828
-0.232093 4.29389 -0.00206991
-0.256359 3.86164 -0.00522344
-0.353373 3.75375 0.00231212
-0.214 3.95517 -0.00807734
-0.241271 4.31241 -0.00141502
-0.205783 4.21396 -0.00512567
-1.18351 4.29826 0.0154811
-0.264185 3.84828 -0.0043745
-0.247532 3.87398 -0.00568664
-0.86359 4.47589 0.0312181
-0.952695 4.4516 0.0289166
-0.809141 3.55879 0.0181262
-0.196838 4.05041 -0.00773237
-0.222771 4.27616 -0.00303846
-0.306796 4.38741 0.00511731
-0.537925 4.47472 0.0240526
-0.27182 3.83412 -0.00409484
-0.239148 3.88496 -0.00579968
-0.195062 4.0819 -0.00748414
-0.776325 4.49031 0.0293406
-0.250559 4.33179 -0.000409396
-1.30188 4.1094 -0.0019141
-1.05288 4.42233 0.0175112
-0.595747 3.5913 0.0160269
-0.200495 3.99987 -0.00792304
-0.195064 4.15604 -0.00705265
-0.280296 3.81848 -0.0034067
-0.231496 3.89525 -0.00656532
-0.19407 4.14139 -0.00693054
-0.739127 3.54319 0.0183934
-0.205294 4.22848 -0.00483625
-0.203947 3.98096 -0.00802034
-0.438854 3.67242 0.00736738
-0.21337 4.25914 -0.00388908
-0.195578 4.17046 -0.00654761
-0.322132 3.76991 0.000127032
-0.215431 3.93411 -0.00738678
-0.397732 3.70322 0.00420612
-0.197632 4.01817 -0.00785194
-0.192454 4.12686 -0.00652245
-0.697619 4.50066 0.0318603
-0.260322 4.35229 0.000543177
-0.581251 4.49213 0.0257514
-0.287927 4.3805 0.0024538
-0.487068 3.6352 0.0107026
-0.195845 4.18457 -0.00578391
-1.16174 4.38234 0.0117508
-0.389405 4.44236 0.0132724
-0.192046 4.06746 -0.00737721
-1.29543 4.21808 -0.00288551
-0.205556 3.96149 -0.00789902
-0.3617 3.7278 0.00286328
-1.20499 3.64534 0.00871071
-0.363392 4.43187 0.00911388
-0.417628 4.45448 0.0157867
-1.11441 3.57711 0.0158178
-0.19036 4.11259 -0.00662747
-0.223334 3.90495 -0.0075015
-0.288297 3.80125 -0.00257134
-1.28506 3.73212 0.0037169
-0.193035 4.0365 -0.00844039
-1.01936 3.52885 0.0206954
-0.449595 4.46819 0.016971
-0.339195 4.42153 0.00772819
-0.228506 4.30878 -0.00207524
-0.19595 4.19871 -0.005287
-0.671434 3.53477 0.0192366
-0.219815 4.29108 -0.00303347
-1.35455 3.84037 0.00222325
-0.926908 4.50181 0.0302663
-0.543276 3.58987 0.0130654
-0.204172 4.24298 -0.00486933
-0.236948 4.32726 -0.00120532
-0.837177 4.51596 0.0303292
-0.188065 4.09848 -0.00731559
-0.927731 3.49767 0.0182335
-1.02136 4.48 0.0200243
-0.484111 4.48197 0.0205355
-0.317591 4.41174 0.00722154
-0.207086 3.9418 -0.00855377
-0.329447 3.7475 0.00122842
-0.628436 4.51074 0.0292556
-0.269936 4.37371 0.00140533
-0.210947 4.274 -0.00417803
-0.294923 3.78288 -0.00178496
-0.214953 3.9135 -0.00749187
-1.40533 3.96903 -0.00485301
-1.27405 4.32202 -0.00272709
-0.195712 4.21314 -0.00529383
-0.188424 4.0534 -0.00757447
-0.243868 3.85067 -0.00563089
-0.749731 4.52289 0.0320318
-0.245209 4.34666 0.000107771
-0.195325 3.98633 -0.00859959
-0.250509 3.83817 -0.00540404
-0.236309 3.86257 -0.00638805
-0.192622 4.00425 -0.00786446
-0.842796 3.4778 0.0190955
-1.12826 4.45351 0.00661002
-0.405079 3.67048 0.00594135
-0.185739 4.08445 -0.00804991
-0.29786 4.40345 0.00483137
-0.520272 4.49671 0.0257321
-0.447624 3.63452 0.0086539
-0.25752 3.82446 -0.00508394
-0.22841 3.87345 -0.00686043
-0.197965 3.96716 -0.00795895
-0.608166 3.53452 0.0156529
-0.368163 3.69976 0.00367243
-0.18925 4.0225 -0.00866773
-1.42138 4.10972 -0.0231944