# vtk DataFile Version 2.0
sampleSurface
ASCII
DATASET POLYDATA
POINTS 3157 double
0 14.95 0
-2.14396e-17 14.95 0.65625
1.3125 14.95 0
-1.3125 14.95 0
-4.28791e-17 14.95 1.3125
1.3125 14.95 0.65625
-1.3125 14.95 0.65625
1.3125 14.95 1.3125
-1.3125 14.95 1.3125
-6.43187e-17 14.95 1.96875
1.3125 14.95 1.96875
-1.3125 14.95 1.96875
-8.57583e-17 14.95 2.625
2.625 14.95 0
-2.625 14.95 0
2.625 14.95 0.65625
-2.625 14.95 0.65625
1.3125 14.95 2.625
-1.3125 14.95 2.625
2.625 14.95 1.3125
-2.625 14.95 1.3125
-1.07198e-16 14.95 3.28125
2.625 14.95 1.96875
-2.625 14.95 1.96875
-1.3125 14.95 3.28125
1.3125 14.95 3.28125
2.625 14.95 2.625
-2.625 14.95 2.625
3.9375 14.95 0
-3.9375 14.95 0
-1.28637e-16 14.95 3.9375
3.9375 14.95 0.65625
-3.9375 14.95 0.65625
-1.3125 14.95 3.9375
1.3125 14.95 3.9375
3.9375 14.95 1.3125
-3.9375 14.95 1.3125
-2.625 14.95 3.28125
2.625 14.95 3.28125
3.9375 14.95 1.96875
-3.9375 14.95 1.96875
3.9375 14.95 2.625
-3.9375 14.95 2.625
-2.625 14.95 3.9375
2.625 14.95 3.9375
-3.9375 14.95 3.28125
3.9375 14.95 3.28125
-5.25 14.95 0
5.25 14.95 0
-1.71517e-16 14.95 5.25
-5.25 14.95 0.65625
5.25 14.95 0.65625
-5.25 14.95 1.3125
5.25 14.95 1.3125
3.9375 14.95 3.9375
-3.9375 14.95 3.9375
-5.25 14.95 1.96875
5.25 14.95 1.96875
-5.25 14.95 2.625
-2.625 14.95 5.25
2.625 14.95 5.25
5.25 14.95 2.625
-5.25 14.95 3.28125
5.25 14.95 3.28125
-6.5625 14.95 0
-5.25 14.95 3.9375
6.5625 14.95 0
5.25 14.95 3.9375
1.93923e-17 14.95 6.5625
-6.5625 14.95 0.65625
6.5625 14.95 0.65625
-6.5625 14.95 1.3125
6.5625 14.95 1.3125
-6.5625 14.95 1.96875
6.5625 14.95 1.96875
-6.5625 14.95 2.625
2.625 14.95 6.5625
-2.625 14.95 6.5625
6.5625 14.95 2.625
-6.5625 14.95 3.28125
6.5625 14.95 3.28125
-5.25 14.95 5.25
5.25 14.95 5.25
-6.5625 14.95 3.9375
6.5625 14.95 3.9375
2.10301e-16 14.95 7.875
-7.875 14.95 0
7.875 14.95 0
-7.875 14.95 0.65625
7.875 14.95 0.65625
-7.875 14.95 1.3125
7.875 14.95 1.3125
-7.875 14.95 1.96875
7.875 14.95 1.96875
2.625 14.95 7.875
-7.875 14.95 2.625
-2.625 14.95 7.875
7.875 14.95 2.625
5.25 14.95 6.5625
-5.25 14.95 6.5625
-7.875 14.95 3.28125
7.875 14.95 3.28125
-7.875 14.95 3.9375
7.875 14.95 3.9375
-9.1875 14.95 0
9.1875 14.95 0
4.0121e-16 14.95 9.1875
-9.1875 14.95 0.65625
9.1875 14.95 0.65625
-9.1875 14.95 1.3125
9.1875 14.95 1.3125
-9.1875 14.95 1.96875
9.1875 14.95 1.96875
-5.25 14.95 7.875
-7.875 14.95 5.25
7.875 14.95 5.25
5.25 14.95 7.875
-9.1875 14.95 2.625
2.625 14.95 9.1875
-2.625 14.95 9.1875
9.1875 14.95 2.625
-9.1875 14.95 3.28125
9.1875 14.95 3.28125
-9.1875 14.95 3.9375
9.1875 14.95 3.9375
7.875 14.95 6.5625
-7.875 14.95 6.5625
5.92119e-16 14.95 10.5
10.5 14.95 0
-10.5 14.95 0
10.5 14.95 0.65625
-10.5 14.95 0.65625
-5.25 14.95 9.1875
5.25 14.95 9.1875
10.5 14.95 1.3125
-10.5 14.95 1.3125
10.5 14.95 1.96875
-10.5 14.95 1.96875
2.625 14.95 10.5
10.5 14.95 2.625
-10.5 14.95 2.625
-2.625 14.95 10.5
10.5 14.95 3.28125
-10.5 14.95 3.28125
7.875 14.95 7.875
-7.875 14.95 7.875
10.5 14.95 3.9375
-10.5 14.95 3.9375
-5.25 14.95 10.5
5.25 14.95 10.5
10.5 14.95 5.25
-10.5 14.95 5.25
-11.7611 14.95 0
-11.7611 14.95 0.65625
11.8125 14.95 0
11.8125 14.95 0.65625
-11.7611 14.95 1.3125
11.8125 14.95 1.3125
-11.7611 14.95 1.96875
11.8125 14.95 1.96875
-11.7611 14.95 2.625
7.875 14.95 9.1875
11.8125 14.95 2.625
-7.875 14.95 9.1875
-11.7611 14.95 3.28125
11.8125 14.95 3.28125
10.5 14.95 6.5625
-10.5 14.95 6.5625
-11.7611 14.95 3.9375
11.8125 14.95 3.9375
-13.0222 14.95 0
-13.0222 14.95 0.65625
-13.0222 14.95 1.3125
-7.875 14.95 10.5
7.875 14.95 10.5
2.96059e-16 14.95 13.125
10.5 14.95 7.875
13.125 14.95 0
-10.5 14.95 7.875
13.125 14.95 0.65625
-13.0222 14.95 1.96875
13.125 14.95 1.3125
13.125 14.95 1.96875
-13.0222 14.95 2.625
13.125 14.95 2.625
-13.0222 14.95 3.28125
13.125 14.95 3.28125
-13.0222 14.95 3.9375
13.125 14.95 3.9375
10.5 14.95 9.1875
-10.5 14.95 9.1875
-13.0222 14.95 5.25
13.125 14.95 5.25
-5.25 14.95 13.125
5.25 14.95 13.125
-14.2833 14.95 0
-14.2833 14.95 0.65625
-14.2833 14.95 1.3125
-14.2833 14.95 1.96875
14.4375 14.95 0
14.4375 14.95 0.65625
14.4375 14.95 1.3125
-14.2833 14.95 2.625
14.4375 14.95 1.96875
-13.0222 14.95 6.5625
-14.2833 14.95 3.28125
14.4375 14.95 2.625
13.125 14.95 6.5625
14.4375 14.95 3.28125
-14.2833 14.95 3.9375
-10.5 14.95 10.5
10.5 14.95 10.5
14.4375 14.95 3.9375
-13.0222 14.95 7.875
13.125 14.95 7.875
-15.5445 14.95 0
-15.5445 14.95 0.65625
-15.5445 14.95 1.3125
-15.5445 14.95 1.96875
0 14.95 15.75
15.75 14.95 0
15.75 14.95 0.65625
-15.5445 14.95 2.625
10.5 14.95 11.8125
15.75 14.95 1.3125
15.75 14.95 1.96875
-15.5445 14.95 3.28125
-13.0222 14.95 9.1875
15.75 14.95 2.625
13.125 14.95 9.1875
-15.5445 14.95 3.9375
15.75 14.95 3.28125
15.75 14.95 3.9375
-15.5445 14.95 5.25
15.75 14.95 5.25
-5.25 14.95 15.75
5.25 14.95 15.75
-13.0222 14.95 10.5
-16.8056 14.95 0
-10.5 14.95 13.125
10.5 14.95 13.125
13.125 14.95 10.5
-16.8056 14.95 0.65625
-16.8056 14.95 1.3125
-15.5445 14.95 6.5625
-16.8056 14.95 1.96875
-16.8056 14.95 2.625
15.75 14.95 6.5625
17.0625 14.95 0
17.0625 14.95 0.65625
17.0625 14.95 1.3125
-16.8056 14.95 3.28125
17.0625 14.95 1.96875
-16.8056 14.95 3.9375
17.0625 14.95 2.625
17.0625 14.95 3.28125
-15.5445 14.95 7.875
17.0625 14.95 3.9375
15.75 14.95 7.875
13.125 14.95 11.8125
10.5 14.95 14.4375
-15.5445 14.95 9.1875
-18.0667 14.95 0
-18.0667 14.95 0.65625
-18.0667 14.95 1.3125
-18.0667 14.95 1.96875
15.75 14.95 9.1875
-18.0667 14.95 2.625
-18.0667 14.95 3.28125
1.4803e-16 14.95 18.375
18.375 14.95 0
18.375 14.95 0.65625
18.375 14.95 1.3125
18.375 14.95 1.96875
-18.0667 14.95 3.9375
13.125 14.95 13.125
18.375 14.95 2.625
18.375 14.95 3.28125
-15.5445 14.95 10.5
18.375 14.95 3.9375
-18.0667 14.95 5.25
-10.5 14.95 15.75
15.75 14.95 10.5
10.5 14.95 15.75
18.375 14.95 4.59375
-5.25 14.95 18.375
5.25 14.95 18.375
18.375 14.95 5.25
-18.0667 14.95 6.5625
18.375 14.95 5.90625
-19.3278 14.95 0
-19.3278 14.95 0.65625
-19.3278 14.95 1.3125
-19.3278 14.95 1.96875
-19.3278 14.95 2.625
13.125 14.95 14.4375
18.375 14.95 6.5625
-19.3278 14.95 3.28125
15.75 14.95 11.8125
19.6875 14.95 0
19.6875 14.95 0.65625
-18.0667 14.95 7.875
-19.3278 14.95 3.9375
19.6875 14.95 1.3125
18.375 14.95 7.21875
19.6875 14.95 1.96875
19.6875 14.95 2.625
19.6875 14.95 3.28125
18.375 14.95 7.875
10.5 14.95 17.0625
19.6875 14.95 3.9375
19.6875 14.95 4.59375
18.375 14.95 8.53125
-18.0667 14.95 9.1875
-15.5445 14.95 13.125
19.6875 14.95 5.25
13.125 14.95 15.75
15.75 14.95 13.125
18.375 14.95 9.1875
19.6875 14.95 5.90625
-20.5889 14.95 0
-20.5889 14.95 0.65625
-20.5889 14.95 1.3125
-20.5889 14.95 1.96875
19.6875 14.95 6.5625
-20.5889 14.95 2.625
18.375 14.95 9.84375
-20.5889 14.95 3.28125
-18.0667 14.95 10.5
-20.5889 14.95 3.9375
19.6875 14.95 7.21875
2.96059e-16 14.95 21
21 14.95 0
21 14.95 0.65625
21 14.95 1.3125
21 14.95 1.96875
-10.5 14.95 18.375
21 14.95 2.625
18.375 14.95 10.5
10.5 14.95 18.375
19.6875 14.95 7.875
-20.5889 14.95 5.25
21 14.95 3.28125
15.75 14.95 14.4375
21 14.95 3.9375
19.6875 14.95 8.53125
21 14.95 4.59375
18.375 14.95 11.1562
13.125 14.95 17.0625
-20.5889 14.95 6.5625
-5.25 14.95 21
5.25 14.95 21
21 14.95 5.25
19.6875 14.95 9.1875
21 14.95 5.90625
18.375 14.95 11.8125
21 14.95 6.5625
19.6875 14.95 9.84375
-20.5889 14.95 7.875
-22.0887 14.95 0
-22.0887 14.95 0.65625
21 14.95 6.89062
-22.0887 14.95 1.3125
-15.5445 14.95 15.75
-22.0887 14.95 1.96875
18.375 14.95 12.4688
21 14.95 7.21875
-22.0887 14.95 2.625
15.75 14.95 15.75
22.3125 14.95 0
19.6875 14.95 10.5
10.5 14.95 19.6875
21 14.95 7.54688
22.3125 14.95 0.65625
-22.0887 14.95 3.28125
22.3125 14.95 1.3125
22.3125 14.95 1.96875
21 14.95 7.875
-22.0887 14.95 3.9375
22.3125 14.95 2.625
21 14.95 8.20312
-20.5889 14.95 9.1875
22.3125 14.95 3.28125
18.375 14.95 13.125
13.125 14.95 18.375
19.6875 14.95 11.1562
21.6562 14.95 6.5625
22.3125 14.95 3.9375
21 14.95 8.53125
21.6562 14.95 6.89062
22.3125 14.95 4.59375
21 14.95 8.85938
21.6562 14.95 7.21875
22.3125 14.95 5.25
21 14.95 9.1875
21.6562 14.95 7.54688
19.6875 14.95 11.8125
18.375 14.95 13.7812
21.6562 14.95 7.875
21 14.95 9.51562
22.3125 14.95 5.90625
-20.5889 14.95 10.5
21.6562 14.95 8.20312
22.3125 14.95 6.23438
21 14.95 9.84375
15.75 14.95 17.0625
22.3125 14.95 6.5625
21.6562 14.95 8.53125
19.6875 14.95 12.4688
21 14.95 10.1719
22.3125 14.95 6.89062
18.375 14.95 14.4375
21.6562 14.95 8.85938
22.3125 14.95 7.21875
-10.5 14.95 21
21 14.95 10.5
10.5 14.95 21
21.6562 14.95 9.1875
22.3125 14.95 7.54688
-23.5884 14.95 0
-23.5884 14.95 0.65625
-23.5884 14.95 1.3125
1.24543e-16 14.95 23.625
23.625 14.95 0
21 14.95 10.8281
23.625 14.95 0.65625
21.6562 14.95 9.51562
13.125 14.95 19.6875
19.6875 14.95 13.125
23.625 14.95 1.3125
22.3125 14.95 7.875
-23.5884 14.95 1.96875
23.625 14.95 1.96875
22.9688 14.95 5.90625
-23.5884 14.95 2.625
23.625 14.95 2.625
22.3125 14.95 8.20312
18.375 14.95 15.0938
21 14.95 11.1562
21.6562 14.95 9.84375
22.9688 14.95 6.23438
-23.5884 14.95 3.28125
23.625 14.95 3.28125
22.3125 14.95 8.53125
22.9688 14.95 6.5625
-23.5884 14.95 3.9375
21.6562 14.95 10.1719
23.625 14.95 3.9375
22.9688 14.95 6.89062
22.3125 14.95 8.85938
19.6875 14.95 13.7812
21.6562 14.95 10.5
23.625 14.95 4.59375
-15.5445 14.95 18.375
22.9688 14.95 7.21875
21 14.95 11.8125
22.3125 14.95 9.1875
-23.5884 14.95 5.25
22.9688 14.95 7.54688
-5.25 14.95 23.625
5.25 14.95 23.625
18.375 14.95 15.75
23.625 14.95 5.25
15.75 14.95 18.375
21.6562 14.95 10.8281
22.3125 14.95 9.51562
22.9688 14.95 7.875
23.625 14.95 5.90625
21.6562 14.95 11.1562
22.3125 14.95 9.84375
22.9688 14.95 8.20312
19.6875 14.95 14.4375
-20.5889 14.95 13.125
21 14.95 12.4688
23.625 14.95 6.23438
-23.5884 14.95 6.5625
22.9688 14.95 8.53125
23.625 14.95 6.5625
22.3125 14.95 10.1719
23.625 14.95 6.89062
22.9688 14.95 8.85938
18.375 14.95 16.4062
10.5 14.95 22.3125
22.3125 14.95 10.5
23.625 14.95 7.21875
22.9688 14.95 9.1875
13.125 14.95 21
21 14.95 13.125
23.625 14.95 7.54688
22.3125 14.95 10.8281
19.6875 14.95 15.0938
22.9688 14.95 9.51562
-23.5884 14.95 7.875
23.625 14.95 7.875
24.9375 14.95 0
24.9375 14.95 0.328125
22.3125 14.95 11.1562
[...]
POINT_DATA 3157
FIELD attributes 1
epsilon 1 3157 float
0.111418 0.0794291 0.111801 0.111135 0.0412647 0.0797608 0.0791923 0.0415276 0.0410806 0.0328009
0.0330524 0.0326138 0.0294076 0.112424 0.110895 0.0802039 0.0790486 0.0296775 0.0292006 0.0418125
0.0409998 0.0276967 0.0333769 0.0324848 0.0274688 0.0279915 0.0300359 0.0290471 0.113361 0.110765
0.0267981 0.0808913 0.0789446 0.0265589 0.0271215 0.0422494 0.0409123 0.027297 0.0283838 0.0338323
0.0323819 0.0305336 0.0289305 0.0263613 0.0275484 0.027166 0.0289297 0.110749 0.114683 0.0257233
0.0788899 0.0819407 0.0408291 0.0429671 0.0281226 0.0262297 0.0323032 0.0344989 0.02884 0.0252084
0.026606 0.0312423 0.0270619 0.0297238 0.110752 0.0260997 0.116613 0.0290019 0.0251892 0.0788894
0.0834133 0.0408073 0.0439294 0.0322527 0.0354219 0.0287702 0.0261629 0.0246148 0.0322141 0.0269788
0.0307738 0.0248928 0.028246 0.0260221 0.0300876 0.0247816 0.110731 0.119558 0.078896 0.0855517
0.0408132 0.0452349 0.0322191 0.0367301 0.0258313 0.0287195 0.0241509 0.0336072 0.0279625 0.0242596
0.0269166 0.032308 0.0259349 0.0318479 0.110762 0.123995 0.0243674 0.07891 0.0888424 0.040803
0.0472765 0.0321955 0.0386836 0.0237604 0.0246904 0.0315833 0.0277562 0.0286836 0.0254776 0.0236742
0.0356226 0.02687 0.0344195 0.0258967 0.0340133 0.0315551 0.0240284 0.0239048 0.130657 0.11089
0.09393 0.0789702 0.0232517 0.0275278 0.0505504 0.0407958 0.041711 0.0321814 0.0250107 0.0387129
0.0286569 0.0231776 0.037705 0.0268327 0.0314876 0.0235046 0.037806 0.0258325 0.0227176 0.0272083
0.0387918 0.0245572 0.11098 0.0790351 0.140937 0.101792 0.0408167 0.0556268 0.0321752 0.0463796
0.0286366 0.0312528 0.0433906 0.0229748 0.0268028 0.0424987 0.0392584 0.0238721 0.0258194 0.0426278
0.111013 0.0790777 0.0408476 0.0224519 0.0306241 0.0225601 0.0395208 0.156959 0.0233288 0.114023
0.0321757 0.0635204 0.0536426 0.0286238 0.0506399 0.0267815 0.0500109 0.025767 0.0510614 0.0393823
0.0227825 0.0244684 0.0543376 0.0213439 0.0258056 0.111096 0.0791273 0.040859 0.0321782 0.18177
0.132891 0.0756348 0.0286172 0.0647867 0.0237644 0.0267665 0.0616364 0.0559417 0.0610541 0.025771
0.0222118 0.0393875 0.0618614 0.0232056 0.0572162 0.111236 0.0792023 0.0408698 0.0321844 0.0208675
0.219072 0.161114 0.0286137 0.0407886 0.0936484 0.081514 0.0267548 0.0226465 0.0783268 0.057819
0.0257278 0.078145 0.0803848 0.0244076 0.0871612 0.0197373 0.0236896 0.0221081 0.111315 0.0207947
0.0375275 0.0574431 0.0792631 0.0408997 0.0236878 0.0321941 0.0286117 0.0926561 0.272624 0.201602
0.119607 0.0267453 0.105996 0.0257392 0.103067 0.103225 0.0231157 0.104408 0.0973891 0.0558988
0.0369073 0.0225455 0.111337 0.0793025 0.0409364 0.032205 0.100714 0.0286124 0.0267397 0.019035
0.342811 0.255167 0.155348 0.141226 0.0257029 0.0531665 0.140215 0.142924 0.0219534 0.151053
0.0243653 0.0192038 0.101889 0.0331614 0.172216 0.0180536 0.0213247 0.172048 0.0236319 0.190141
0.111431 0.0793674 0.0409625 0.0322162 0.0286155 0.04948 0.187654 0.0267366 0.0999196 0.42139
0.317865 0.0230482 0.0257216 0.202394 0.202771 0.190555 0.194377 0.20343 0.202711 0.0317594
0.215169 0.228515 0.219264 0.0224685 0.0205089 0.242666 0.0451856 0.0945828 0.21676 0.257402
0.111548 0.079435 0.0409794 0.0322283 0.272491 0.0286195 0.231483 0.0267341 0.0219166 0.0256924
0.287391 0.0172318 0.487791 0.378947 0.261064 0.255771 0.0175675 0.267162 0.224491 0.0282607
0.302091 0.0243346 0.284384 0.0862403 0.304848 0.316445 0.327652 0.234864 0.0406839 0.023589
0.0164192 0.0190014 0.352513 0.329205 0.3793 0.222302 0.424183 0.33917 0.0229949 0.111596
0.0794751 0.458915 0.0410065 0.0189183 0.0322435 0.226795 0.457294 0.0286251 0.0754071 0.517493
0.345262 0.0266473 0.487746 0.422762 0.0267332 0.324791 0.329713 0.487326 0.0256883 0.349547
0.519903 0.0224061 0.375041 0.208956 0.0363271 0.346965 0.505282 0.404449 0.517431 0.527627
0.437356 0.549737 0.548018 0.477084 0.543129 0.569093 0.344368 0.206985 0.589982 0.573806
0.532057 0.0218005 0.610175 0.573866 0.564151 0.0651001 0.588855 0.629239 0.337119 0.592465
0.616035 0.186524 0.646109 0.646757 0.0159965 0.577309 0.0237729 0.659726 0.676764 0.111648
0.0795344 0.0410525 0.0155597 0.493205 0.603072 0.42854 0.669917 0.032289 0.324796 0.368287
0.70489 0.0322626 0.38403 0.586896 0.0286337 0.408107 0.731443 0.183289 0.574857 0.678119
0.612794 0.0267358 0.434843 0.757139 0.643823 0.02569 0.686329 0.462129 0.677761 0.778872
0.306813 0.688765 0.488933 0.0172991 0.716079 0.556254 0.792898 0.0243121 0.751857 0.0149097
0.0168777 0.158052 0.526629 0.0554738 0.692776 0.799391 0.775964 0.582649 0.689574 0.802563
0.786964 0.284043 0.0203346 0.551228 0.610067 0.0235544 0.737857 0.626515 0.808279 0.626174
0.693336 0.150904 0.0223648 0.804687 0.500559 0.702982 0.0286269 0.539565 0.386985 0.803754
0.258566 0.70502 0.02295 0.395175 0.459454 0.400111 0.791345 0.343457 0.330903 0.348646
0.474503 0.761837 0.357728 0.391146 0.371845 0.373762 0.377919 0.383904 0.129062 0.111768
0.0796206 0.38364 0.529342 0.327025 0.826712 0.0410909 0.396282 0.295977 0.0322819 0.392843
0.0469358 0.232302 0.0286446 0.269994 0.278633 0.782562 0.392327 0.83233 0.542907 0.0267407
0.0223523 0.132139 0.272484 0.373433 0.831517 0.0256876 1.23229e-06 0.272072 0.318935 0.49131
0.1224 1.33738e-06 0.838988 0.817501 0.346927 0.447687 0.377397 0.307243 0.313602 0.254307
0.206799 0.327186 2.08291e-06 0.340798 0.344486 0.646513 0.336721 0.138675 0.866065 0.431413
0.331771 2.40175e-06 0.331722 1.20891e-06 0.326274 0.0217716 0.255382 0.632425 1.01214e-05 0.0145542
0.0201552 0.503709 0.425906 1.10618e-06 0.0256105 0.852192 0.211698 0.0187406 6.89561e-07 1.45019e-05
0.103481 0.668159 0.605104 0.183068 0.885537 4.64192e-07 9.36514e-06 0.5628 0.0157565 0.900192
8.79299e-07 0.0172188 0.829834 0.0395992 0.014158 0.376124 0.433193 2.33269e-06 0.363282 0.294122
0.299668 0.312864 0.926375 0.336013 0.255228 0.0271239 0.169885 2.12778e-06 0.163446 0.801055
0.577206 0.14534 0.0612099 0.13795 0.955846 4.92895e-06 0.161927 0.0660182 0.0372126 4.92294e-06
0.78112 0.111874 0.0796822 0.986134 0.0411091 0.329768 0.129559 0.0322977 5.68102e-06 0.634845
0.0286544 0.784678 0.0136725 0.0150096 0.060386 1.00755 0.0267451 0.0154686 0.718979 0.0256909
2.35746e-07 0.447387 0.368461 0.289455 0.291002 0.0795132 0.142344 0.0251537 0.71454 0.29765
0.314261 1.00174 0.229021 0.0821815 0.0232673 0.775983 0.0160866 0.0405444 1.47658e-07 0.286441
4.20003e-07 0.0242989 3.67818e-07 0.695735 0.967369 9.32468e-08 0.896608 9.61e-08 1.25872e-07 0.200754
0.919133 0.63117 0.0336947 0.117493 1.00777 0.023531 7.28054e-08 0.253299 0.247493 0.866986
0.614918 0.962471 0.426199 0.369004 0.29221 0.285794 0.120106 0.286458 0.017128 6.54434e-08
0.282921 0.289183 0.27217 0.127017 0.815299 3.83844e-07 0.9876 0.549486 3.27709e-07 0.0229179
2.52224e-07 0.375908 7.12747e-16 6.92526e-07 3.15503e-08 0.765207 1.05879 0.0203585 0.219005 0.0629808
0.465186 1.16876e-07 9.09517e-06 3.2925e-06 1.01634 0.718713 9.13643e-08 0.416147 0.111922 0.45664
0.0797167 0.041128 0.022313 0.0323114 8.01874e-06 1.63059e-07 0.0286622 0.966088 0.294189 0.671849
0.282494 0.70571 0.287191 0.304219 3.02807e-06 0.0133995 0.0171069 0.0267485 0.0143497 0.218881
0.0609219 1.8321e-07 2.61063e-06 0.203555 3.28363e-07 0.0256883 2.0375e-07 0.0295161 0.914938 4.63074e-08
1.08194 1.27352e-07 1.56466e-06 0.389911 7.09303e-07 0.866231 0.0216965 1.10233 3.73822e-06 1.38758e-07
1.95741e-06 0.817516 1.07991 7.21486e-07 0.164882 0.247863 1.24705e-07 0.0128602 0.369557 0.322918
0.274782 0.274754 0.0501263 0.330234 0.283584 1.55356e-06 0.310933 1.04484 0.165207 4.01183e-07
0.527066 1.97092e-07 1.70354e-07 1.09918e-07 6.92789e-07 5.58587e-08 1.23166e-06 2.29893e-16 1.00632 0.698716
2.22045e-16 0.812415 2.22045e-16 2.88515e-06 1.03047e-08 9.78275e-08 3.43485e-08 0.962838 1.09249 0.278497
0.0134087 3.5027e-07 5.54389e-08 3.10184e-06 6.21864e-08 0.0155987 9.7695e-08 2.11179e-07 1.11616 0.0266667
1.93031e-07 0.600204 0.363534 0.306491 0.254112 1.16526e-07 2.28019e-06 0.261628 0.272828 0.297727
0.111991 0.079772 0.15714 1.21543e-07 0.0411582 3.57491e-07 1.21103e-07 1.91659e-07 0.020212 0.032326
1.09138 3.47137e-08 0.116693 0.0286707 1.50997e-08 0.25081 2.39934e-07 2.56166e-16 0.234051 1.49143e-07
0.0267533 6.13612e-16 4.0976e-07 6.27193e-09 0.0256935 1.06657 0.531284 8.31471e-09 0.0404626 0.506734
1.53185e-07 2.87541e-08 1.33494e-06 1.60046e-07 3.8722e-08 0.024291 0.746042 9.55474e-08 1.35316e-07 1.31084e-07
1.53803e-06 9.62114e-08 0.286772 0.258219 0.234432 0.244119 0.259782 0.973259 0.275985 1.36922e-07
8.19969e-08 0.140724 5.12342e-07 1.30985e-06 1.19372e-07 3.23682e-07 0.0235145 2.82382e-08 0.421731 8.28052e-08
1.43473e-07 2.08924e-07 2.67942e-06 3.14014e-07 1.22382e-07 0.0132202 1.06856e-07 2.59375e-07 2.01264e-07 0.865812
0.0225425 0.246622 0.0228942 0.0835396 1.3396e-07 7.47218e-08 1.36853e-07 0.0147734 0.354529 8.86468e-08
1.25633e-07 1.23341e-07 0.135348 0.175603 0.217429 0.225918 0.253673 0.201743 1.55349e-07 0.018612
0.0644884 1.18781e-06 1.57549e-07 0.944334 2.94951e-07 9.86347e-08 0.0332017 0.747204 0.022283 4.09938e-08
8.98277e-08 1.1927e-07 1.47885e-07 0.112077 0.0798388 2.13382e-07 0.0411923 1.10323e-07 3.14225e-07 0.0323427
0.30353 3.38183e-07 0.0286807 1.7914e-07 1.63944e-07 3.88149e-07 0.0267592 2.65193e-07 1.16512 0.0256937
0.0142086 6.75195e-08 1.51832e-07 0.628694 0.0216929 3.18955e-08 9.17118e-07 1.72881e-07 6.96014e-08 1.18798
0.0114637 0.0182089 0.0742546 0.130028 0.133636 0.152468 1.32871e-07 0.0837108 1.36887e-07 1.02016e-06
8.91165e-07 1.25766e-07 0.0621284 0.238406 4.14011e-08 2.44124e-08 1.13984 1.50147e-08 1.34729e-07 1.03967e-08
1.43517e-07 0.0204062 0.0705909 9.17101e-09 1.45594e-07 0.517824 1.03626e-08 9.05011e-08 1.11288 1.18357
2.87207e-07 0.0118622 2.34529e-07 1.56807e-07 6.36677e-08 1.56029e-07 1.20988 1.03756 0.0277448 0.202981
3.17083e-08 0.231614 4.58428e-16 2.59275e-10 0.0212365 0.0436239 0.044492 1.24609e-07 0.419401 0.0438866
0.0217824 1.20607 3.66839e-07 0.995361 6.29572e-08 0.220005 2.12703e-07 3.69805e-08 1.5033e-07 2.25611e-08
1.6735e-07 0.0170015 1.4166e-08 1.09196e-08 9.03874e-09 1.17729 0.473826 0.907829 1.08774e-08 1.52768e-07
1.13498e-08 0.157562 1.01451e-07 1.06939e-07 1.13117 1.37032e-07 0.112108 0.849291 0.0798648 0.3361
0.0473702 0.0412121 0.858212 1.57045e-07 2.73008e-08 4.8542e-07 0.0323576 0.0286901 1.74642e-08 0.0267642
1.20348e-08 1.17507 1.07341 6.30338e-07 2.43024e-10 0.7648 1.54187e-07 0.0111588 0.02414 1.34703e-07
0.0257023 0.0269543 0.0272556 0.0132827 3.67969e-07 2.11613e-07 0.0178455 1.80936e-07 8.18943e-08 1.20354e-07
2.50428e-08 1.20636 1.18686e-08 0.135913 1.66371e-07 1.00859 7.21641e-09 1.47041e-06 1.49118e-07 0.024286
5.47295e-09 0.267201 4.45406e-09 7.19485e-09 1.19134 0.0236722 1.263e-08 0.940041 0.268451 6.54384e-08
1.24907e-07 0.0109426 0.01272 1.28678e-07 0.607082 1.23707e-07 6.7722e-08 0.0235017 2.70724e-08 1.15462
0.567327 0.87552 1.74642e-08 0.0131066 2.0772e-07 1.49081e-08 0.108213 1.33949e-07 7.14538e-08 0.209909
0.0678457 0.0778189 0.0917762 0.0988763 1.10125 0.105356 0.891576 0.0630299 0.0228746 0.00867037
1.27852e-07 3.44511e-07 3.97716e-07 6.94524e-08 1.39119e-07 4.36593e-08 0.487798 0.037116 6.10334e-08 2.06435e-07
7.1651e-08 1.20357 1.04343 1.12564e-07 9.71118e-07 1.16526e-07 1.45943e-07 1.17683e-07 9.31988e-08 1.02043e-07
1.052e-07 1.21475 0.0222574 0.984155 2.49422e-06 5.77254e-08 0.0154798 0.167631 1.50733e-07 1.47829e-08
3.75512e-08 1.16648e-08 0.385385 1.18942 3.20947e-08 1.34978e-07 0.286596 0.937082 1.51587e-07 1.78256e-07
8.1875e-08 2.259e-07 0.212126 0.205349 0.203685 0.211476 0.220209 0.189071 1.10063e-07 0.0759406
5.80034e-07 1.14566 0.881388 0.0207921 2.17143e-07 0.0216327 1.19909e-07 7.07522e-08 0.844625 1.43037e-07
6.29732e-07 8.84035e-08 9.01551e-08 0.139559 0.0732801 1.21886e-07 4.57646e-08 0.112147 0.0798954 1.09901e-07
1.22285e-07 0.0412332 1.21698 1.08969 0.0323739 1.04687e-07 1.08907e-06 1.11448e-07 0.299496 0.0287003
6.52815e-08 2.75804e-09 1.47721e-08 0.0267702 5.48322e-08 1.2433 0.0256721 1.02512 1.96222e-06 7.66113e-08
0.0299509 0.68091 9.53672e-08 3.87719e-09 7.28417e-08 9.76065e-08 1.22706 0.286958 0.328696 0.285238
0.957938 0.246999 0.254276 0.262755 9.60023e-08 0.281467 0.146879 8.69422e-09 3.97011e-07 0.233585
1.0497e-07 2.12653e-07 8.56069e-08 7.68199e-08 9.21678e-08 1.18753 0.875095 7.97676e-08 7.13526e-08 7.03599e-08
1.31855e-07 6.82166e-08 0.545285 5.18195e-08 5.46781e-08 0.0201327 1.21733 1.13268 2.89575e-07 5.86632e-08
1.29661e-07 0.0144207 7.26007e-08 9.88453e-08 1.15765e-07 1.265 0.190695 0.0531647 1.06918 9.30231e-08
2.10024e-06 1.25176e-07 7.76434e-08 0.352228 0.311742 0.273108 0.274178 0.427902 0.291031 0.310292
1.25834 0.163529 0.429684 3.29411e-07 5.44776e-08 1.33307e-07 1.42261e-07 9.64432e-08 0.0141003 1.12239e-07
1.23981e-07 1.35557e-07 1.22211 0.994166 1.39671e-07 0.0250988 0.900848 1.20036e-07 1.00333e-07 0.159157
8.48358e-08 3.32035e-08 8.83647e-08 8.43124e-08 1.17112 1.24685 9.55139e-08 0.33232 0.0101328 1.18345e-07
1.38416e-07 1.27451 1.25285e-07 0.739091 1.73278e-07 7.46282e-08 1.07835e-07 0.112235 0.0799668 1.18466e-07
0.0412729 0.0185266 0.124051 0.0323941 1.27279 0.028713 0.0103538 0.0399915 0.258675 1.21818e-07
0.0267787 0.025715 6.54693e-08 1.23756 1.10354e-07 8.9237e-07 0.586887 0.0242842 2.34664e-07 1.17573e-07
2.4673e-06 5.28967e-08 0.199702 0.0234921 0.325854 0.315917 0.0217135 1.11944 0.31899 1.31027e-07
0.129697 0.22356 1.14957e-07 0.0575603 0.4549 8.53517e-08 1.04644e-07 1.1793e-07 0.204678 3.53807e-08
0.0228582 3.37854e-07 1.09855e-07 7.35689e-08 0.0801442 8.45117e-08 0.753384 0.953077 0.159968 9.76762e-07
1.76414e-07 2.97574e-08 0.0222352 0.0312478 0.34841 5.39635e-08 1.20803 1.96903e-07 0.0129715 1.29707e-06
0.0107953 0.0169156 1.32048e-07 1.28536 2.16713e-06 0.774546 1.31092e-07 4.5935e-08 1.16085e-08 0.0107426
0.021616 1.30959 0.357708 0.267133 1.23012e-07 2.10473e-07 1.01421e-07 0.0178987 1.28279 2.76351e-08
0.95937 1.28711e-07 0.604336 7.18183e-07 0.112315 0.0800246 0.0413002 0.0324104 9.32235e-08 0.0287247
1.25035 1.3224e-07 1.25137 0.0555823 0.347289 0.331058 0.0267869 0.319405 0.330398 1.2216e-06
0.332582 0.192936 0.0256835 0.207425 0.0314215 5.82744e-09 2.60041e-07 2.19847e-07 2.69465e-08 1.22276e-07
1.16825 1.31465 2.22045e-16 1.41748e-08 0.0812193 6.35429e-08 0.0253291 0.459255 6.33395e-08 2.59793e-07
1.32435 1.02992e-07 1.10011 7.8413e-08 0.454933 4.02476e-08 4.23136e-07 7.98982e-08 4.81659e-08 0.16404
1.29828 8.27324e-08 0.989674 1.00012 1.03457e-07 5.91444e-07 0.344895 1.17634e-07 0.327914 0.33796
4.50638e-07 0.0153973 0.354585 1.24412 4.23673e-08 1.29418 0.257385 8.43606e-08 0.0753146 2.73056e-06
6.11754e-07 3.35451e-07 1.14137e-07 9.21956e-09 4.66213e-07 2.22045e-16 1.1682 1.34667 0.772754 0.0848056
1.51479e-07 0.124407 0.0405068 7.41392e-08 2.22363e-08 2.35263e-06 1.34891 1.08466 0.258897 2.12492e-07
0.615775 0.0115789 2.23489e-06 5.30594e-08 1.315 2.79497e-07 4.18415e-09 1.18781 0.0213804 0.587349
0.379128 0.346507 0.333233 3.11745e-06 0.340182 0.354571 0.373286 0.332407 0.141071 2.78432e-07
4.32017e-08 5.80575e-07 1.25228 1.34864 5.74603e-07 2.44867e-07 4.14776e-06 2.52779e-08 0.195627 8.40329e-08
3.7866e-08 7.6614e-08 3.10108e-06 2.35108e-07 1.17214 1.05841e-07 1.3906 0.112354 2.36601e-07 0.080051
0.315318 4.90723e-08 0.0413143 0.0324226 0.435931 2.46351e-06 0.0287336 1.93364e-07 1.92349e-07 0.026793
1.38359 1.08554 0.941798 0.0257248 0.0775536 1.75394e-07 1.91926e-07 3.30155e-06 5.63346e-08 0.153497
0.0310242 2.97244e-07 0.354312 0.341934 1.33768 1.57166e-07 0.355555 0.9618 0.381563 0.0242858
1.32369 1.4386e-07 0.420122 0.31681 0.0976949 4.11852e-06 0.015945 3.32714e-07 0.01345 0.321368
3.15386e-07 5.78982e-07 1.25878 6.58865e-08 1.42186 3.98552e-08 0.0140232 1.38062e-07 0.0234876 1.02907e-07
3.96936e-07 1.57516e-07 0.284849 0.00902788 1.43292e-07 3.34964e-07 8.20932e-07 1.1569 1.44886 0.722563
5.00055e-07 0.886356 2.68159e-08 0.0228486 4.89189e-09 1.48037e-08 2.66044e-06 0.238308 6.08268e-07 1.05157
1.42329 1.30008 0.00940355 2.35028e-08 0.422522 0.372361 0.0698052 0.357572 4.21926e-08 0.371786
0.399792 0.439764 6.53798e-07 0.365153 0.0222212 0.221792 1.35055 0.171735 5.35777e-09 1.44559
3.12205e-07 0.530211 0.140048 0.0525319 0.0716702 0.484281 0.0153847 5.07103e-07 6.68477e-07 6.09504e-08
5.92409e-07 1.23179 1.00709e-06 1.50822 6.53462e-07 0.0244156 0.182964 7.67912e-07 1.02803 9.04505e-07
0.02159 1.87944e-08 6.7997e-07 0.0138174 1.95215e-06 1.12265 1.50177 0.0224609 1.04272e-07 1.32137
0.38344 0.113186 3.23573e-08 0.262323 6.67543e-07 7.19598e-08 0.276106 1.44259 0.389521 0.373243
1.46859 0.386295 0.410582 4.07458e-07 0.43794 0.4467 0.422213 0.769413 0.292553 4.70143e-08
0.384006 0.346198 0.209785 0.112411 5.01144e-07 0.848408 0.0800872 0.0413295 0.121595 1.53868
1.41193e-06 0.0324352 0.202704 0.309399 1.8492e-08 0.0287421 0.0127923 1.16078 0.266838 0.278448
0.0267986 0.284674 0.0085982 0.00947536 2.78765e-07 0.294777 0.025691 0.0812466 1.53481 3.14271e-07
0.328837 8.66717e-07 0.299535 1.38014 0.300593 0.0379228 3.53716e-07 0.292758 5.78142e-07 0.0200761
0.0129521 1.31547e-06 0.549911 0.1034 0.3516 0.363138 1.46636 0.611317 2.37843e-07 1.48907
0.0157547 0.0660437 1.58167e-06 0.460306 0.403334 1.08462 0.376992 0.212482 0.376593 0.391422
0.415155 0.445295 4.97071e-07 0.0209539 0.469404 0.483608 1.52903 0.491624 0.267113 1.07781e-06
0.496712 0.431235 1.31182 0.0128907 1.21717e-06 0.411093 0.401653 0.511012 1.19815 0.575923
1.50529 1.40534e-06 0.431896 0.568206 1.48374e-06 0.595564 1.9963e-06 1.43484 0.608519 0.425394
0.616795 1.50947e-06 0.177109 0.607366 0.970663 1.43591 2.48895e-06 0.576756 1.49012 0.58239
1.39461e-06 0.448226 0.504247 0.237561 1.28262 2.25904e-06 0.89578 0.600289 1.44548e-06 1.48766
0.306582 0.356672 0.439068 0.831159 0.0757354 0.464199 0.0184639 0.0647593 0.0295552 0.622861
0.490621 1.39948 0.469705 0.515684 0.541251 0.413708 2.08062e-06 0.567303 1.43432 0.586184
1.12046 0.646522 0.322962 0.593351 1.454 0.457543 0.596116 0.0724792 0.599547 0.46882
0.635208 0.604663 1.34613 0.672111 0.714865 1.29179 0.494723 0.611947 0.273834 0.223576
1.45607 0.622521 0.699818 0.52601 1.04597 1.38271 0.651765 0.474093 1.41306 0.550552
0.0100542 0.752625 0.112473 1.21609 0.728599 0.0801316 0.0413504 0.459637 1.42445 0.648091
0.394261 0.343353 0.441437 0.0324477 1.07634 0.393159 0.028751 0.432823 0.569648 1.33261
0.446749 0.893852 0.0268051 0.482899 0.490741 1.31337 0.938362 0.757109 0.160652 0.523471
0.0257334 1.42293 0.52117 0.968125 0.658431 0.544046 0.532856 1.23395 1.37127 0.551669
1.18134 0.0242882 0.0441373 0.541083 1.0208 0.78517 1.38137 0.87539 0.563264 0.800602
0.308778 0.548356 1.27131 1.39347 1.06395 0.0168511 1.08939 0.0234853 1.31176 0.545411
0.813343 0.122856 1.099 1.32711 1.3816 0.550783 1.19889 1.23885 1.12746 0.0228421
0.840323 1.00908 0.560119 1.35728 0.567543 1.25074 1.33882 0.221418 1.10415 1.15158
1.01366 0.569949 1.36152 1.28398 0.863017 1.26847 1.02797 1.1735 0.0222111 0.57872
1.33665 1.30347 1.03936 1.1837 1.19166 0.88049 0.396664 0.585481 0.842162 1.30806
1.31013 0.0144675 1.04995 0.160357 1.20495 0.0215859 0.0313442 0.59032 1.0593 1.29738
0.411002 1.22073 0.333838 0.914049 0.259137 1.21298 0.273534 0.297508 0.0708274 0.594336
1.06637 0.952642 0.318507 1.27051 1.21342 1.16143 0.280107 0.620856 0.333155 1.07097
0.933088 0.342783 0.599153 0.123987 1.225 1.20731 0.0153342 0.350429 1.0353 0.959418
1.07248 0.357216 1.21588 0.112474 0.605008 0.0801441 0.0413678 0.931403 0.362518 1.07021
0.0324572 0.0287581 0.445293 0.205051 0.0268107 1.15988 0.366005 0.956405 0.0257003 1.06381
0.00848792 0.610677 0.800423 0.377715 0.0106162 0.924333 1.15034 1.05358 0.412494 0.0100845
0.614549 0.947979 1.05082 0.318559 1.03432 0.150088 0.0465988 0.400911 0.909667 0.604074
0.615388 0.431956 0.930368 0.866278 0.884859 0.408375 0.612554 0.230661 0.444143 0.343509
0.113089 0.268364 0.187884 0.904407 0.186043 0.434685 0.194234 0.202893 0.604675 0.694568
0.210019 0.838628 0.0205138 0.409791 0.215753 0.0139636 0.220561 0.176073 0.325576 0.224813
0.590216 0.436151 0.74439 0.533961 0.228462 0.0323363 0.231344 0.410043 0.569632 0.246643