# vtk DataFile Version 2.0
sampleSurface
ASCII
DATASET POLYDATA
POINTS 3802 double
5.41366e-16 0.34375 10.95
5.41366e-16 -4.79688 10.95
-5.25 0.34375 10.95
5.25 0.34375 10.95
5.41366e-16 5.48438 10.95
-5.25 -4.79688 10.95
5.25 -4.79688 10.95
-5.25 5.48438 10.95
5.25 5.48438 10.95
5.41366e-16 -9.9375 10.95
-10.5 0.34375 10.95
10.5 0.34375 10.95
5.41366e-16 10.625 10.95
-5.25 -9.9375 10.95
5.25 -9.9375 10.95
-10.5 -4.79688 10.95
10.5 -4.79688 10.95
-10.5 5.48438 10.95
10.5 5.48438 10.95
-5.25 10.625 10.95
5.25 10.625 10.95
10.5 8.05469 10.95
13.125 5.48438 10.95
-10.5 -9.9375 10.95
10.5 -9.9375 10.95
-10.5 10.625 10.95
10.5 10.625 10.95
5.41366e-16 -15.0781 10.95
13.125 8.05469 10.95
-15.5445 0.34375 10.95
15.75 0.34375 10.95
5.41366e-16 15.7656 10.95
15.75 -2.22656 10.95
-5.25 -15.0781 10.95
5.25 -15.0781 10.95
15.75 2.91406 10.95
-15.5445 -4.79688 10.95
15.75 -4.79688 10.95
-15.5445 5.48438 10.95
-5.25 15.7656 10.95
5.25 15.7656 10.95
15.75 5.48438 10.95
10.5 13.1953 10.95
13.125 10.625 10.95
15.75 8.05469 10.95
-10.5 -15.0781 10.95
10.5 -15.0781 10.95
18.375 0.34375 10.95
-15.5445 -9.9375 10.95
18.375 -2.22656 10.95
18.375 2.91406 10.95
13.125 13.1953 10.95
15.75 -9.9375 10.95
-15.5445 10.625 10.95
10.5 15.7656 10.95
-10.5 15.7656 10.95
18.375 -4.79688 10.95
15.75 10.625 10.95
18.375 5.48438 10.95
18.375 8.05469 10.95
5.41366e-16 -20.2188 10.95
13.125 15.7656 10.95
15.75 13.1953 10.95
-20.5889 0.34375 10.95
-5.25 -20.2188 10.95
5.25 -20.2188 10.95
5.41366e-16 20.9062 10.95
21 0.34375 10.95
21 1.62891 10.95
21 -2.22656 10.95
10.5 18.3359 10.95
-20.5889 -4.79688 10.95
21 2.91406 10.95
18.375 10.625 10.95
-20.5889 5.48438 10.95
21 4.19922 10.95
21 -4.79688 10.95
-5.25 20.9062 10.95
5.25 20.9062 10.95
-15.5445 -15.0781 10.95
21 5.48438 10.95
15.75 -15.0781 10.95
18.375 11.9102 10.95
21 6.76953 10.95
-15.5445 15.7656 10.95
21 -7.36719 10.95
15.75 15.7656 10.95
22.3125 0.34375 10.95
19.6875 10.625 10.95
22.3125 1.62891 10.95
21 8.05469 10.95
22.3125 2.91406 10.95
13.125 18.3359 10.95
18.375 13.1953 10.95
22.3125 4.19922 10.95
-10.5 -20.2188 10.95
10.5 -20.2188 10.95
-20.5889 -9.9375 10.95
22.3125 5.48438 10.95
21 9.33984 10.95
19.6875 11.9102 10.95
-20.5889 10.625 10.95
15.75 17.0508 10.95
17.0625 15.7656 10.95
21 -9.9375 10.95
22.3125 6.76953 10.95
-10.5 20.9062 10.95
10.5 20.9062 10.95
18.375 14.4805 10.95
21 10.625 10.95
23.625 0.34375 10.95
23.625 1.62891 10.95
19.6875 13.1953 10.95
22.3125 8.05469 10.95
23.625 -2.22656 10.95
23.625 2.91406 10.95
23.625 4.19922 10.95
23.625 -4.79688 10.95
17.0625 17.0508 10.95
21 11.9102 10.95
15.75 18.3359 10.95
22.3125 9.33984 10.95
18.375 15.7656 10.95
23.625 5.48438 10.95
23.625 6.12695 10.95
19.6875 14.4805 10.95
23.625 6.76953 10.95
13.125 20.9062 10.95
22.3125 10.625 10.95
23.625 -7.36719 10.95
23.625 7.41211 10.95
21 13.1953 10.95
24.2812 5.48438 10.95
24.9375 0.34375 10.95
23.625 8.05469 10.95
24.9375 1.62891 10.95
24.2812 6.12695 10.95
17.0625 18.3359 10.95
18.375 17.0508 10.95
24.9375 2.91406 10.95
15.75 19.6211 10.95
24.2812 6.76953 10.95
19.6875 15.7656 10.95
24.9375 4.19922 10.95
22.3125 11.9102 10.95
5.41366e-16 -25.3594 10.95
24.2812 7.41211 10.95
24.9375 4.8418 10.95
23.625 9.33984 10.95
-15.5445 -20.2188 10.95
21 14.4805 10.95
-20.5889 -15.0781 10.95
24.9375 5.48438 10.95
24.2812 8.05469 10.95
15.75 -20.2188 10.95
23.625 -9.9375 10.95
24.9375 6.12695 10.95
10.5 23.4766 10.95
24.9375 6.76953 10.95
21 -15.0781 10.95
21 15.123 10.95
-5.25 -25.3594 10.95
5.25 -25.3594 10.95
23.625 10.625 10.95
22.3125 13.1953 10.95
-20.5889 15.7656 10.95
25.5938 4.19922 10.95
18.375 18.3359 10.95
17.0625 19.6211 10.95
24.9375 7.41211 10.95
19.6875 17.0508 10.95
5.41366e-16 26.0469 10.95
25.5938 4.8418 10.95
21.6562 14.4805 10.95
-15.5445 20.9062 10.95
25.5938 5.48438 10.95
15.75 20.9062 10.95
24.9375 8.05469 10.95
26.25 0.34375 10.95
21 15.7656 10.95
26.25 1.62891 10.95
25.5938 6.12695 10.95
26.25 -2.22656 10.95
24.9375 8.69727 10.95
26.25 2.91406 10.95
21.6562 15.123 10.95
23.625 11.9102 10.95
19.6875 17.6934 10.95
25.5938 6.76953 10.95
26.25 3.55664 10.95
20.3438 17.0508 10.95
5.25 26.0469 10.95
-5.25 26.0469 10.95
26.25 4.19922 10.95
-26.5878 0.34375 10.95
22.3125 14.4805 10.95
24.9375 9.33984 10.95
25.5938 7.41211 10.95
21 16.4082 10.95
26.25 -4.79688 10.95
26.25 4.8418 10.95
21.6562 15.7656 10.95
26.25 5.48438 10.95
25.5938 8.05469 10.95
18.375 19.6211 10.95
13.125 23.4766 10.95
19.6875 18.3359 10.95
22.3125 15.123 10.95
26.25 6.12695 10.95
20.3438 17.6934 10.95
17.0625 20.9062 10.95
-26.5878 -4.79688 10.95
25.5938 8.69727 10.95
21 17.0508 10.95
23.625 13.1953 10.95
26.9062 2.91406 10.95
24.9375 10.625 10.95
26.25 6.76953 10.95
26.9062 3.55664 10.95
-26.5878 5.48438 10.95
22.9688 14.4805 10.95
21.6562 16.4082 10.95
15.75 22.1914 10.95
26.9062 4.19922 10.95
25.5938 9.33984 10.95
26.25 -7.36719 10.95
26.25 7.41211 10.95
22.3125 15.7656 10.95
26.9062 4.8418 10.95
19.6875 18.9785 10.95
20.3438 18.3359 10.95
-10.5 -25.3594 10.95
10.5 -25.3594 10.95
26.25 8.05469 10.95
26.9062 5.48438 10.95
21 17.6934 10.95
22.9688 15.123 10.95
21.6562 17.0508 10.95
27.5625 0.34375 10.95
26.9062 6.12695 10.95
27.5625 1.62891 10.95
24.9375 11.9102 10.95
26.25 8.69727 10.95
22.3125 16.4082 10.95
23.625 14.4805 10.95
27.5625 2.91406 10.95
26.9062 6.76953 10.95
27.5625 3.55664 10.95
19.6875 19.6211 10.95
20.3438 18.9785 10.95
18.375 20.9062 10.95
22.9688 15.7656 10.95
26.25 9.33984 10.95
21 18.3359 10.95
27.5625 4.19922 10.95
26.9062 7.41211 10.95
21.6562 17.6934 10.95
27.5625 4.8418 10.95
17.0625 22.1914 10.95
23.625 15.123 10.95
26.25 -9.9375 10.95
22.3125 17.0508 10.95
-10.5 26.0469 10.95
10.5 26.0469 10.95
26.9062 8.05469 10.95
27.5625 5.48438 10.95
24.9375 13.1953 10.95
22.9688 16.4082 10.95
27.5625 6.12695 10.95
19.6875 20.2637 10.95
20.3438 19.6211 10.95
15.75 23.4766 10.95
26.9062 8.69727 10.95
21 18.9785 10.95
26.25 10.625 10.95
28.2188 2.91406 10.95
21.6562 18.3359 10.95
27.5625 6.76953 10.95
-26.5878 -9.9375 10.95
23.625 15.7656 10.95
28.2188 3.55664 10.95
22.3125 17.6934 10.95
26.9062 9.33984 10.95
28.2188 4.19922 10.95
27.5625 7.41211 10.95
22.9688 17.0508 10.95
28.2188 4.8418 10.95
-26.5878 10.625 10.95
20.3438 20.2637 10.95
27.5625 8.05469 10.95
19.6875 20.9062 10.95
21 19.6211 10.95
28.2188 5.48438 10.95
23.625 16.4082 10.95
21.6562 18.9785 10.95
18.375 22.1914 10.95
26.25 11.9102 10.95
24.9375 14.4805 10.95
-20.5889 -20.2188 10.95
28.2188 6.12695 10.95
28.875 0.34375 10.95
22.3125 18.3359 10.95
28.875 -0.941406 10.95
27.5625 8.69727 10.95
28.875 1.62891 10.95
28.875 -2.22656 10.95
22.9688 17.6934 10.95
28.2188 6.76953 10.95
28.875 2.91406 10.95
17.0625 23.4766 10.95
28.875 3.55664 10.95
27.5625 9.33984 10.95
23.625 17.0508 10.95
21 -20.2188 10.95
13.125 26.0469 10.95
20.3438 20.9062 10.95
28.875 4.19922 10.95
21 20.2637 10.95
19.6875 21.5488 10.95
21.6562 19.6211 10.95
28.875 -4.79688 10.95
28.875 4.8418 10.95
22.3125 18.9785 10.95
-20.5889 20.9062 10.95
15.75 24.7617 10.95
26.25 13.1953 10.95
22.9688 18.3359 10.95
28.875 5.48438 10.95
24.9375 15.7656 10.95
23.625 17.6934 10.95
28.875 6.12695 10.95
27.5625 10.625 10.95
21 20.9062 10.95
20.3438 21.5488 10.95
28.875 6.76953 10.95
21.6562 20.2637 10.95
19.6875 22.1914 10.95
29.5312 2.91406 10.95
22.3125 19.6211 10.95
-15.5445 -25.3594 10.95
29.5312 3.55664 10.95
22.9688 18.9785 10.95
28.875 -7.36719 10.95
18.375 23.4766 10.95
29.5312 4.19922 10.95
15.75 -25.3594 10.95
23.625 18.3359 10.95
29.5312 4.8418 10.95
28.875 8.05469 10.95
26.25 14.4805 10.95
27.5625 11.9102 10.95
29.5312 5.48438 10.95
17.0625 24.7617 10.95
21 21.5488 10.95
21.6562 20.9062 10.95
20.3438 22.1914 10.95
22.3125 20.2637 10.95
19.6875 22.834 10.95
30.1875 0.34375 10.95
30.1875 -0.941406 10.95
22.9688 19.6211 10.95
24.9375 17.0508 10.95
30.1875 1.62891 10.95
30.1875 -2.22656 10.95
26.25 -15.0781 10.95
23.625 18.9785 10.95
30.1875 2.91406 10.95
-15.5445 26.0469 10.95
28.875 9.33984 10.95
30.1875 3.55664 10.95
15.75 26.0469 10.95
30.1875 4.19922 10.95
10.5 28.6172 10.95
5.41366e-16 -30.5 10.95
28.875 -9.9375 10.95
21.6562 21.5488 10.95
21 22.1914 10.95
27.5625 13.1953 10.95
-26.5878 -15.0781 10.95
30.1875 4.8418 10.95
22.3125 20.9062 10.95
20.3438 22.834 10.95
26.25 15.7656 10.95
22.9688 20.2637 10.95
19.6875 23.4766 10.95
30.1875 5.48438 10.95
23.625 19.6211 10.95
28.875 10.625 10.95
18.375 24.7617 10.95
-26.5878 15.7656 10.95
30.1875 6.76953 10.95
-5.25 -30.5 10.95
5.25 -30.5 10.95
24.9375 18.3359 10.95
21.6562 22.1914 10.95
22.3125 21.5488 10.95
21 22.834 10.95
22.9688 20.9062 10.95
20.3438 23.4766 10.95
23.625 20.2637 10.95
27.5625 14.4805 10.95
17.0625 26.0469 10.95
5.41366e-16 31.1875 10.95
28.875 11.9102 10.95
30.1875 8.05469 10.95
26.25 17.0508 10.95
22.3125 22.1914 10.95
21.6562 22.834 10.95
13.125 28.6172 10.95
22.9688 21.5488 10.95
21 23.4766 10.95
31.5 0.34375 10.95
31.5 -0.941406 10.95
31.5 1.62891 10.95
23.625 20.9062 10.95
31.5 -2.22656 10.95
31.5 2.27148 10.95
30.1875 9.33984 10.95
-5.25 31.1875 10.95
5.25 31.1875 10.95
19.6875 24.7617 10.95
31.5 2.91406 10.95
24.9375 19.6211 10.95
28.875 13.1953 10.95
27.5625 15.7656 10.95
31.5 4.19922 10.95
31.5 -4.79688 10.95
18.375 26.0469 10.95
22.3125 22.834 10.95
22.9688 22.1914 10.95
21.6562 23.4766 10.95
31.5 5.48438 10.95
23.625 21.5488 10.95
21 24.1191 10.95
30.1875 10.625 10.95
26.25 18.3359 10.95
32.1562 1.62891 10.95
31.5 6.76953 10.95
32.1562 2.27148 10.95
-10.5 -30.5 10.95
10.5 -30.5 10.95
32.1562 2.91406 10.95
28.875 14.4805 10.95
31.5 -7.36719 10.95
22.9688 22.834 10.95
22.3125 23.4766 10.95
27.5625 17.0508 10.95
23.625 22.1914 10.95
21.6562 24.1191 10.95
21 24.7617 10.95
31.5 8.05469 10.95
24.9375 20.9062 10.95
-32.5868 0.34375 10.95
19.6875 26.0469 10.95
-20.5889 -25.3594 10.95
15.75 28.6172 10.95
26.25 19.6211 10.95
32.8125 0.34375 10.95
32.8125 -0.941406 10.95
32.8125 0.986328 10.95
22.9688 23.4766 10.95
32.8125 1.62891 10.95
31.5 9.33984 10.95
23.625 22.834 10.95
22.3125 24.1191 10.95
32.8125 -2.22656 10.95
32.8125 2.27148 10.95
24.2812 22.1914 10.95
21.6562 24.7617 10.95
28.875 15.7656 10.95
[...]
POINT_DATA 3802
FIELD attributes 1
epsilon 1 3802 float
0.0242274 0.0245199 0.0236505 0.0254057 0.0239942 0.0240891 0.0252593 0.0232273 0.0258235 0.0248687
0.0233216 0.0282532 0.0238086 0.0245451 0.0253585 0.0238173 0.0266767 0.0228338 0.0314816 0.0228118
0.0264174 0.0337719 0.037825 0.0243227 0.0261281 0.0223515 0.0356997 0.0252622 0.0421586 0.0231201
0.037076 0.0236258 0.0322544 0.0250179 0.0255963 0.0461217 0.0236412 0.0295532 0.0226077 0.0223952
0.0270492 0.0554462 0.0386532 0.0478255 0.0660985 0.0248383 0.0260526 0.0478871 0.0241716 0.0370396
0.0667531 0.0534891 0.0273672 0.0221031 0.0404324 0.0218715 0.0321724 0.0789009 0.0928907 0.122498
0.0256926 0.0585054 0.0919308 0.0229854 0.0255084 0.0259257 0.0234022 0.0744593 0.0962252 0.0480157
0.043065 0.0235194 0.122584 0.160936 0.0224618 0.160429 0.0366023 0.0219702 0.0275022 0.0247112
0.191147 0.0266516 0.185178 0.23536 0.0216055 0.0316527 0.110045 0.0950837 0.218421 0.121107
0.268293 0.164468 0.0623568 0.199974 0.213145 0.0253654 0.0262111 0.0240637 0.262604 0.322923
0.247029 0.0219488 0.119749 0.142216 0.0292787 0.316437 0.0213916 0.0438065 0.231866 0.3503
0.126523 0.171082 0.28881 0.383683 0.0690213 0.238043 0.307299 0.0432798 0.151397 0.393714
0.119746 0.461291 0.231149 0.389395 0.441021 0.332184 0.485381 0.0651298 0.538275 0.0338674
0.557656 0.464729 0.463159 0.177369 0.60415 0.242047 0.513533 0.162708 0.239825 0.338103
0.127358 0.587824 0.371177 0.442538 0.618672 0.0261531 0.664937 0.505413 0.703515 0.0252604
0.558411 0.0246175 0.56007 0.724253 0.0265409 0.0305359 0.637428 0.0455734 0.741339 0.0273829
0.605189 0.026015 0.0263184 0.754438 0.705871 0.0214464 0.514646 0.259323 0.171739 0.834667
0.423072 0.0231091 0.574181 0.672523 0.0211141 0.670342 0.12707 0.880448 0.233491 0.61519
0.330931 0.796231 0.101591 0.886372 0.465491 0.698612 0.785547 0.451934 0.905226 0.528471
0.51349 0.0276446 0.0215313 0.585361 0.022883 0.783471 0.824236 0.940957 0.65585 0.0532305
0.671298 0.722968 0.783146 0.698511 0.273263 0.067008 0.45247 0.804921 0.881409 0.531665
0.178429 0.0234232 0.452119 0.657543 0.800596 0.5275 0.555537 0.711849 0.575357 0.0223549
0.84923 0.757111 0.133882 0.650048 0.473751 0.0370759 0.475224 0.80813 0.758489 0.472457
0.550085 0.0259026 0.0265058 0.226279 0.631293 0.676683 0.828787 0.810734 0.306933 0.4416
0.424371 0.414692 1.02446e-05 0.82873 0.668548 0.573186 0.221655 0.621656 0.467695 0.564701
0.282334 0.634868 0.0745172 0.692403 0.688004 1.76378e-05 0.844825 0.578709 0.183193 0.61446
0.0317418 0.883071 0.0209134 0.045365 1.69444e-05 0.214047 0.38416 0.450834 2.22167e-06 0.483249
0.576232 0.132217 1.00019e-05 0.706904 0.127204 0.615502 0.838889 1.05561e-05 0.0239753 0.311228
0.64143 0.812934 4.31269e-06 0.603265 3.00106e-05 0.439121 0.276882 0.0218397 0.581794 1.63341e-05
0.47336 0.722489 4.95026e-06 0.0462457 0.83514 0.287923 4.3571e-07 0.174229 0.0251803 5.22089e-06
0.34945 0.574964 0.217109 9.88242e-07 0.495843 0.142062 0.350856 7.18834e-06 0.623254 0.186545
0.626397 7.76262e-07 3.70631e-06 0.0268793 0.0684349 0.579593 0.401816 0.725632 0.482591 0.852342
0.0643954 0.0945811 0.440498 0.0209544 0.138895 3.1856e-07 0.125628 1.32329e-05 1.46849e-05 3.49056e-06
7.42396e-06 1.61111e-07 0.711847 0.572903 1.19747e-05 0.849045 0.470519 0.622192 0.450519 0.0258171
0.58884 9.20223e-06 0.040505 0.291138 0.275481 0.0267021 8.71784e-06 7.81604e-06 7.82095e-06 1.4365e-06
1.92181e-07 1.34433e-05 0.188828 0.691638 0.81128 0.56599 0.447486 0.481098 0.376855 0.238709
5.73588e-06 4.15065e-06 0.521157 0.161848 0.0281255 1.39484e-05 0.584931 0.0206312 5.41869e-07 0.551967
0.135958 0.25544 0.046575 0.026646 0.0332658 0.769772 0.673999 1.51186e-07 0.0245377 3.82823e-07
0.421164 0.561299 1.44076e-06 1.29925e-06 0.465598 3.7847e-06 7.09889e-06 1.44865e-07 0.291148 0.0213376
1.3553e-05 0.0265433 0.0267632 3.24128e-07 0.740409 0.394437 0.657785 1.39376e-06 0.556409 2.43486e-07
2.18182e-07 0.188696 0.0227447 1.06437e-07 7.29319e-06 1.89837e-07 0.508735 0.716579 0.0692391 6.081e-06
0.641018 0.40059 0.262094 0.514304 9.42547e-07 0.171785 0.527952 8.95731e-07 0.0210793 0.0275302
0.440734 0.492134 1.02188e-07 1.30469e-07 2.52983e-07 0.214077 0.0745351 0.29585 0.644292 0.13146
0.686719 9.96545e-06 8.26264e-06 0.62461 7.05991e-07 1.53983e-07 0.508332 1.66534e-05 0.502707 0.0264561
0.0268887 0.462185 1.49613e-07 0.0433386 0.361251 0.647333 1.61433e-07 6.78041e-06 0.653321 0.58778
8.56958e-06 3.30382e-08 0.0228138 0.420277 0.0257498 0.132891 1.50551e-07 0.448527 0.292091 0.505555
0.486374 0.513107 1.11336e-06 0.0818045 0.626094 0.19648 0.470498 1.21909e-06 0.627329 1.53531e-07
0.0204397 0.0463426 0.0268846 0.311504 0.0233566 0.293544 0.0717559 0.0340004 0.0222846 0.0626227
1.80208e-07 0.0271622 0.0204744 8.6343e-07 1.2711e-05 0.25129 0.514629 9.74502e-07 0.586369 2.9939e-07
0.0251096 0.522686 0.483307 0.524651 1.62928e-05 0.527212 1.60551e-07 0.435619 9.23495e-08 0.180105
4.41736e-07 0.397671 3.96535e-06 0.359224 0.505281 0.0997927 1.39262e-05 0.533751 4.09125e-07 0.0208489
1.90689e-07 0.0688297 5.52655e-16 0.28562 0.0239125 0.50752 0.327611 0.556981 1.07954e-07 0.543257
0.207119 0.350191 1.55702e-07 0.384251 0.224611 0.0263876 0.485165 0.0975394 0.0366188 0.0217699
0.510646 1.52972e-07 2.9859e-06 0.0270135 2.67862e-08 8.18144e-06 0.0270608 0.0811572 0.474422 1.63013e-05
1.39532e-07 0.261493 0.387488 0.113756 0.468043 2.61873e-07 0.377397 0.550277 1.36086e-05 1.54721e-08
0.595616 0.02698 0.0271499 0.567656 0.0201577 0.274144 0.0166974 1.70251e-07 0.0445678 0.0285843
0.132977 9.88927e-06 1.03054e-05 1.29471e-05 0.277933 0.167872 0.379118 0.0462276 6.95261e-08 1.88352e-07
0.456587 6.9285e-08 0.571745 0.354226 0.636374 0.606375 0.426822 0.226012 0.275725 0.0345728
7.4839e-06 0.189452 0.282568 0.10399 1.17334e-05 0.0175128 1.49901e-07 1.10386e-05 1.80297e-07 3.42882e-07
1.78664e-05 0.0244797 0.0269091 0.0272419 0.197254 0.123165 1.28366e-05 0.0537145 0.60555 0.671416
0.34907 0.650393 3.53723e-07 0.298018 0.243867 0.02127 1.85926e-07 3.98155e-06 0.421234 0.022324
1.29568e-05 1.10635e-07 1.29523e-07 0.0270213 0.13733 0.190703 0.0794064 0.0162306 9.11963e-08 4.66332e-07
0.0206228 0.0272156 1.80183e-07 0.0256881 0.59167 0.347342 0.677642 0.680244 0.0263313 0.20687
0.322411 7.5029e-06 2.74696e-05 0.147005 0.0931862 3.26157e-05 0.204781 0.0447672 0.0271227 0.00306894
0.0761936 0.316313 1.92551e-05 8.00644e-08 0.0203745 0.137329 1.09551e-05 0.020007 0.573963 0.64903
0.0273012 0.104058 0.687083 0.152327 0.0628274 1.77799e-07 0.512024 0.0428218 0.0217905 0.170103
5.0066e-07 1.65201e-05 1.63985e-07 0.326724 6.84276e-06 2.60745e-05 0.0268521 1.4941e-07 0.0199749 0.0456858
0.0273307 0.112974 0.0724786 6.55346e-07 0.0440779 0.215668 0.00773887 5.99004e-07 0.505103 0.033553
0.297266 0.59238 0.660706 0.272781 0.183378 0.699643 0.569332 0.211011 1.58156e-07 3.40254e-07
1.20955e-05 0.0274472 0.0250569 0.0795041 0.0535397 1.67169e-05 0.0259838 0.221707 8.53767e-06 4.21546e-07
1.67174e-07 2.40897e-07 1.28633e-05 6.15205e-09 1.34325e-05 0.0273821 0.0275171 0.0207852 0.446499 0.518144
1.2855e-07 0.598298 0.680131 0.0618304 0.788605 0.134127 0.0405174 0.67012 0.0139222 2.21081e-06
1.28549e-07 0.213058 0.245217 1.52454e-07 7.99792e-06 1.69904e-07 4.17476e-08 5.9694e-06 0.269553 6.21316e-07
9.77676e-06 0.0693875 0.0497295 1.72297e-07 8.55482e-06 0.0322408 1.28549e-07 0.374453 0.00710018 0.224374
0.457284 0.520649 0.140699 0.597565 1.49618e-07 0.715017 9.47872e-08 0.019697 4.42239e-07 0.851683
1.45432e-07 0.126828 0.693444 1.43521e-07 0.061263 0.498772 0.0227618 0.0284207 0.0808363 0.0591499
0.0273233 0.0275875 0.444716 0.283889 0.0415211 0.146009 0.0225229 0.179825 0.00114714 7.74506e-08
1.28549e-07 0.211596 0.110612 1.58286e-07 1.33833e-07 0.023305 1.28549e-07 0.0388408 0.44185 1.25243e-07
0.500358 0.0222334 0.0268051 0.594037 0.705591 0.066412 0.199197 0.0509113 0.0357074 0.0271994
0.814029 4.89797e-08 0.0145888 0.0274063 0.935507 1.55054e-07 1.2112e-07 0.941339 0.0270813 0.0262774
1.80136e-05 1.25317e-07 0.702477 1.28549e-07 1.42663e-07 0.596212 0.0323033 1.55484e-05 0.0598298 0.103286
0.0454702 0.251576 0.159596 1.36522e-07 0.202936 0.370411 0.032071 2.02743e-07 0.108992 0.434566
0.156789 4.23685e-06 0.0116806 0.48612 0.554869 1.06835e-07 0.648264 0.0238622 2.82064e-06 0.764752
0.0199146 0.882536 1.28549e-07 1.43339e-05 1.59465e-07 0.0217206 0.0534608 1.21284e-06 1.2855e-07 0.989274
0.0424508 3.28599e-07 0.248598 0.0292316 0.947704 1.03077e-05 0.0053411 0.0256413 0.0272752 1.8583e-07
3.78662e-06 1.49131e-07 0.0276539 0.392193 0.0218678 0.701586 0.438705 4.83283e-07 0.505527 0.0829827
2.51797e-06 0.0520236 0.654249 0.116143 0.583034 0.0406824 1.2855e-07 0.0219696 0.651268 2.39936e-07
0.020316 0.537756 0.0195545 1.59439e-06 1.52156e-07 0.0201685 0.0267289 1.2855e-07 1.95799e-07 0.503279
0.0272368 6.35742e-07 0.247337 0.174921 0.122833 0.234331 0.499659 0.0834655 0.0495545 0.320687
0.86503 0.0395175 0.370746 1.70393e-07 0.0160358 0.410733 0.472363 0.863096 1.09737e-07 0.0473448
0.477891 1.2855e-07 1.46988e-07 0.529029 0.902765 0.461065 1.60278e-07 7.12714e-07 0.0244318 0.0752715
0.101068 1.42343e-07 0.96726 0.651569 0.0504459 0.0390132 0.0346491 0.972999 0.0159315 0.0212238
0.17769 0.758067 0.436846 0.019522 0.0444423 1.20181e-07 9.76998e-08 0.945291 0.802906 5.7084e-07
1.98382e-07 1.41292e-07 0.932558 0.794298 0.0501632 0.0393223 0.0304442 0.822886 0.405294 0.0159267
1.76354e-07 0.0274582 0.118105 1.38026e-07 0.852017 0.230323 0.151908 0.0953392 0.201735 1.75818e-07
0.0750882 4.01541e-07 1.83173e-07 0.117805 0.862544 0.0267587 0.0279248 0.0272355 0.254372 0.0530709
1.6078e-07 0.0400233 0.37377 0.85628 0.317581 0.629222 0.0277095 0.0152792 0.655453 0.0279771
0.0278749 0.388274 1.16899e-07 0.0272317 0.682369 0.0672725 2.0018e-07 3.50478e-07 0.802876 0.0555606
0.448255 2.58815e-07 0.346089 0.703383 0.0402643 0.00891749 0.0192511 0.717735 0.514944 1.51266e-07
0.0960291 0.112786 0.110713 2.16067e-07 0.0782809 0.132174 0.764761 0.553766 0.0695073 2.41862e-07
0.0581156 0.0250119 3.93608e-07 0.554746 0.0277166 0.086306 0.322379 0.0262357 0.0350475 0.0270492
0.113461 0.0534045 0.14281 2.7281e-07 0.0278289 0.0280286 0.00158402 0.587049 0.1814 0.183708
0.71929 0.0798663 0.0377479 0.0207432 2.82812e-07 0.58597 0.0734971 0.216193 0.0194707 0.0616552
1.53339e-07 0.0198625 0.266382 0.0297768 0.30212 3.68961e-07 0.0313664 0.113753 0.101854 2.55118e-07
0.594683 0.124409 0.673761 0.274903 0.0861856 1.53723e-07 1.69958e-07 0.078916 0.067254 4.58218e-08
0.290297 0.0322077 0.596825 0.0290875 0.284433 2.20249e-07 0.63095 3.5027e-07 0.0910019 0.318583
2.21491e-07 0.0866936 0.0767749 0.586557 1.24179e-07 0.119319 0.127478 2.11683e-07 0.0393666 0.343557
0.0277904 0.112145 0.0280758 0.0191177 0.0039659 0.267542 0.592259 0.101493 0.156249 5.93051e-07
0.0277469 0.0982712 0.193318 3.37177e-07 6.64993e-07 0.376815 0.567737 0.0927389 0.0214027 0.0269927
0.165774 0.0271954 0.0274798 3.79902e-07 0.0559102 5.80258e-07 0.022729 1.56496e-06 0.0357194 0.111927
0.180492 0.0197251 0.0261777 0.557578 0.429565 0.18093 0.250126 0.116322 0.0226544 0.544311
8.27638e-07 0.131042 0.118926 0.0232718 0.129082 0.0255999 0.19833 0.0222018 0.128996 1.18438e-06
0.108836 0.0509226 0.241424 0.0385612 0.420947 0.0706548 0.132403 0.104279 0.0267226 1.30028e-06
0.213309 0.143074 0.0323921 0.0202792 0.52665 0.499962 0.519139 0.0957155 0.0803693 0.159726
0.229108 0.027213 0.0701285 0.183554 0.435636 0.0190852 0.0429907 0.222365 0.0295029 0.48355
0.156034 0.0238293 0.200717 0.125121 0.217442 0.141483 0.180704 0.0216908 0.144094 0.152867
0.494092 0.213334 0.495025 0.0277574 0.213297 0.139922 0.461423 0.157774 0.414599 0.0280144
0.0281143 0.255314 0.281508 0.191778 0.143368 0.480495 0.16705 0.303359 0.440451 0.226769
0.363703 0.0284141 0.468876 0.269306 0.156544 0.418356 0.458999 0.0194254 0.325859 0.426796
0.231132 0.0283762 0.028453 0.153118 0.379083 0.168161 0.264597 0.159925 0.0269344 0.183714
0.441098 0.0188224 0.100502 0.202455 0.329864 0.41803 0.0243997 0.0190428 0.442585 0.370387
0.443749 0.377922 0.425076 0.0211966 0.26875 0.408386 0.0269037 0.0277625 0.428516 0.367903
0.413686 0.0283403 0.0284905 0.171563 0.3495 0.162338 0.0366019 0.420834 0.174699 0.397567
0.0316359 0.0443531 0.410948 0.202824 0.164006 0.0261973 0.0292484 0.404154 0.0542052 0.411656
0.258738 0.388077 0.0271641 0.398848 0.0274669 0.338235 0.394379 0.245489 0.333839 0.0198315
0.0637114 0.171263 0.392535 0.391579 0.177109 0.0281397 0.381363 0.383272 0.201818 0.0186982
0.0277231 0.0713999 0.245697 0.0249811 0.327147 0.245503 0.0283098 0.170894 0.0285242 0.371026
0.306473 0.0207192 0.0266576 0.352548 0.244294 0.0782931 0.192959 0.316188 0.182755 0.169775
0.0209477 0.235198 0.0271487 0.347641 0.0192993 0.0256149 0.282579 0.169723 0.241207 0.202553
0.0840677 0.325258 0.304051 0.0308041 0.0288216 0.0266885 0.0343502 0.328408 0.0275357 0.0190047
0.19181 0.0381725 0.018667 0.0415565 0.236485 0.0282842 0.267115 0.0285513 0.294809 0.294854
0.0277529 0.0432287 0.0876782 0.0255707 0.193186 0.313294 0.0264976 0.231332 0.175667 0.183142
0.0464707 0.21435 0.0202588 0.0267618 0.018632 0.0281503 0.172328 0.290724 0.0194005 0.273253
0.181763 0.0184121 0.0896393 0.0924644 0.226401 0.0507452 0.0274232 0.027696 0.267988 0.183305
0.0262363 0.0523807 0.0901358 0.0271338 0.172688 0.0285688 0.0227022 0.203225 0.181454 0.0282566
0.028992 0.236415 0.0232445 0.0221762 0.0553359 0.0182964 0.0289655 0.0290187 0.153954 0.0261694
0.231916 0.0238018 0.0270474 0.168618 0.026313 0.0894814 0.0198152 0.0216669 0.0289398 0.0290438
0.0552973 0.159428 0.0277213 0.0186007 0.0205115 0.0281436 0.0188953 0.0250659 0.194017 0.215979
0.0243726 0.0189859 0.0883744 0.056909 0.0211748 0.20991 0.0289179 0.0290658 0.0261129 0.0182692
0.0402405 0.0256276 0.0285762 0.0271787 0.163033 0.150842 0.0266632 0.0182381 0.0265648 0.0273531
0.0282349 0.0255666 0.0556113 0.028522 0.0869382 0.0276688 0.0249546 0.0180211 0.198155 0.08596
0.0207001 0.0288985 0.192101 0.0193883 0.0290834 0.171541 0.144692 0.025722 0.0563035 0.0296096
0.0850961 0.0281219 0.0179129 0.0271108 0.15951 0.13941 0.0269248 0.0276697 0.025545 0.178903
0.0285714 0.054523 0.0182131 0.0202426 0.0260043 0.142723 0.0185876 0.0290944 0.0301871 0.0288766
0.0828536 0.0200976 0.0185137 0.0245452 0.0295284 0.05502 0.0295104 0.0295458 0.0189778 0.149679
0.169743 0.0272663 0.0178614 0.0282124 0.129402 0.0178925 0.0390607 0.0244847 0.0263692 0.0294924
0.0295619 0.0246882 0.0261441 0.0244021 0.0302399 0.159659 0.0198022 0.0249827 0.0290991 0.022681
0.0538109 0.0243917 0.0276478 0.0176497 0.0804058 0.0232226 0.022156 0.0294769 0.028086 0.0295756
0.0285563 0.0288595 0.0237796 0.0216482 0.0253414 0.0243451 0.027605 0.14836 0.0266398 0.0182054
0.0267962 0.0175473 0.126448 0.017842 0.0243506 0.0294638 0.0298842 0.0295864 0.0211578 0.0185836
0.0257483 0.0193787 0.112695 0.0241908 0.0290959 0.15379 0.051763 0.0249334 0.0206849 0.0197068
0.0271731 0.0270893 0.136706 0.0181527 0.0240585 0.0175015 0.0281957 0.0295929 0.029448 0.147208
0.028531 0.0261921 0.0175364 0.037998 0.0239069 0.0280403 0.0293413 0.028841 0.0237559 0.0241694
0.0233659 0.0255252 0.0202296 0.0172974 0.0246073 0.0754488 0.0229874 0.0189715 0.0275341 0.017839
0.136701 0.0290863 0.0295958 0.018205 0.0250661 0.0266729 0.0226044 0.0174869 0.103558 0.0495808
0.0171993 0.0235061 0.0294361 0.114904 0.0276276 0.139653 0.0261256 0.0197913 0.0287327 0.0255451
0.0300527 0.0221982 0.0300429 0.0300617 0.0284983 0.0270804 0.0300325 0.0300698 0.134943 0.124725
0.017158 0.0279888 0.0193387 0.0295937 0.0185804 0.0178112 0.0236067 0.0266238 0.0288286 0.0230315
0.0260425 0.0290698 0.0300235 0.0300763 0.0217661 0.0171995 0.037024 0.0193699 0.0233659 0.0238554
0.0174879 0.0281791 0.017842 0.0228855 0.0475851 0.027462 0.0294225 0.022666 0.0960705 0.0169632
0.0709262 0.0232068 0.022142 0.0243554 0.125509 0.0300153 0.0280626 0.0224103 0.0300817 0.0270757
0.0237635 0.0171473 0.0216355 0.0265634 0.126776 0.0248656 0.0213105 0.0295879 0.0219347 0.016868
0.104708 0.0225263 0.0243345 0.0284609 0.0211466 0.0182049 0.0300843 0.0300043 0.0189649 0.0253878
0.0290484 0.0214546 0.0269952 0.0279353 0.12348 0.0249179 0.0206754 0.113937 0.01683 0.027616
0.0208423 0.0458802 0.018992 0.0273904 0.0174878 0.0231879 0.0174938 0.0259204 0.030086 0.0294151
0.0894167 0.0209742 0.0171515 0.0255108 0.0168805 0.0361116 0.0295776 0.0273939 0.0288159 0.0202218
0.0220211 0.0299963 0.0231367 0.0236574 0.0226244 0.115185 0.0166458 0.0185759 0.0667651 0.0241872
0.115211 0.0221191 0.0168225 0.0178445 0.0264697 0.0284213 0.0204956 0.0203749 0.0261124 0.0247254
0.0290234 0.0216196 0.0165526 0.0300846 0.0197853 0.0957619 0.0281702 0.0304087 0.0304036 0.0304131
0.0278836 0.0303979 0.030417 0.0267544 0.0252728 0.113057 0.0269197 0.0444141 0.0211246 0.0295644
0.0215313 0.0266131 0.0299867 0.030393 0.104354 0.0304198 0.0165169 0.0171599 0.0200243 0.0832882
0.0182024 0.0193658 0.0168294 0.0258276 0.0186656 0.0199214 0.0300821 0.0206368 0.017181 0.0227992
0.0303889 0.0273318 0.0304225 0.0174986 0.0165782 0.0352416 0.0270674 0.0294075 0.0229876 0.105863
0.104966 0.0235233 0.022462 0.0283823 0.0289965 0.022663 0.0165118 0.0163442 0.0629354 0.0232031
0.0240688 0.0221398 0.0263961 0.0219463 0.019565 0.0304235 0.0201579 0.0303823 0.0288083 0.0237593
0.021634 0.0189626 0.0261701 0.0210669 0.024623 0.0295485 0.0214406 0.0162519 0.0879397 0.0430924
0.0299824 0.0243299 0.0278353 0.0211459 0.0178438 0.0300769 0.0194885 0.103726 0.026859 0.0276097
0.0251859 0.0209445 0.0168398 0.0304244 0.0776131 0.0249131 0.0196921 0.0206754 0.030378 0.0958989
0.0162179 0.0171668 0.0191233 0.0165207 0.025755 0.0185754 0.0272808 0.0204602 0.0183579 0.0255059
0.0168889 0.0224368 0.0202224 0.0289693 0.095971 0.028345 0.0304235 0.0162909 0.0344006 0.0975315
0.0206321 0.0281668 0.0300708 0.0256377 0.029531 0.0162145 0.0192419 0.0190797 0.0263358 0.0174995
0.0160571 0.0594164 0.0294018 0.0199886 0.0418425 0.0261227 0.0303724 0.0228772 0.0197866 0.0234197
0.0223467 0.0277948 0.0187028 0.0159651 0.0239735 0.0810986 0.0218286 0.0182035 0.0299779 0.0268089
0.0954373 0.0165329 0.0304227 0.0723884 0.0266082 0.0245372 0.0213235 0.0168484 0.0195323 0.0188103
0.0193676 0.0884504 0.016225 0.015932 0.0300629 0.0251099 0.0272387 0.0208314 0.0289429 0.0202264
0.0305834 0.0186941 0.0305832 0.0305834 0.0270506 0.0283131 0.0295128 0.0288054 0.0251511 0.0171691
0.0880954 0.0305826 0.0305833 0.0180676 0.0183052 0.0303705 0.0166109 0.022097 0.0256889 0.0304201
0.0901184 0.0178465 0.0203537 0.0190926 0.030582 0.0160173 0.0335814 0.0305828 0.0406217 0.0159299
0.0189649 0.0183988 0.0157834 0.056189 0.02776 0.0305812 0.0305824 0.0276051 0.0262784 0.0198908
0.0162384 0.0880982 0.0156913 0.030054 0.0676146 0.0165428 0.0751044 0.0228042 0.0299725 0.0186714
0.0233491 0.0222728 0.0183314 0.030582 0.0305787 0.0198482 0.0304174 0.0267597 0.0185782 0.0239068
0.0289202 0.0217557 0.0179306 0.0159414 0.0294943 0.0168519 0.0175036 0.0818849 0.0156585 0.0247025
0.0294002 0.0194443 0.0282862 0.0244755 0.0212533 0.0180088 0.0281482 0.0811956 0.030582 0.0271963
0.0303681 0.0250539 0.0305772 0.020766 0.0394122 0.0177935 0.0835324 0.0163463 0.0217763 0.0182691
0.0156572 0.0157564 0.0327807 0.0182066 0.0300441 0.0190146 0.0304136 0.0256391 0.0202945 0.0305819
0.015522 0.0532333 0.0162494 0.0179897 0.0159559 0.017578 0.0277239 0.0632728 0.0194951 0.0171745
0.0816016 0.0176398 0.0154294 0.069835 0.0294784 0.0288999 0.0305746 0.0262343 0.0165474 0.019839
0.0288011 0.0242836 0.0186028 0.0156694 0.0178863 0.0305823 0.0178499 0.0760846 0.0153966 0.0267215
0.0751425 0.0282571 0.0304094 0.0382108 0.0194003 0.0300335 0.030365 0.0299702 0.0227507 0.0232957
0.0222206 0.0776769 0.0271632 0.0172457 0.0175344 0.0238545 0.0176668 0.021706 0.016094 0.0214718
0.0153957 0.017291 0.0305729 0.0168583 0.0182087 0.0305827 0.0155072 0.0319976 0.0159676 0.0244254
0.0191648 0.0212075 0.0308889 0.0156846 0.0175226 0.0308889 0.0308889 0.0189784 0.0593383 0.0294647
0.015272 0.0505277 0.016255 0.0175073 0.0308889 0.0308889 0.0293838 0.0758422 0.0250067 0.0207252