# vtk DataFile Version 2.0
sampleSurface
ASCII
DATASET POLYDATA
POINTS 43634 double
-9.86865e-17 0.34375 1.75
-8.63507e-17 -0.941406 1.75
1.3125 0.34375 1.75
-1.3125 0.34375 1.75
-1.3125 -0.941406 1.75
1.3125 -0.941406 1.75
-9.86865e-17 1.62891 1.75
1.3125 1.62891 1.75
-1.3125 1.62891 1.75
-7.40149e-17 -2.22656 1.75
-1.3125 -2.22656 1.75
1.3125 -2.22656 1.75
2.625 0.34375 1.75
-2.625 0.34375 1.75
-2.625 -0.941406 1.75
2.625 -0.941406 1.75
-9.86865e-17 2.91406 1.75
2.625 1.62891 1.75
-2.625 1.62891 1.75
1.3125 2.91406 1.75
-1.3125 2.91406 1.75
-2.625 -2.22656 1.75
2.625 -2.22656 1.75
-6.16791e-17 -3.51172 1.75
-1.3125 -3.51172 1.75
1.3125 -3.51172 1.75
2.625 2.91406 1.75
-2.625 2.91406 1.75
3.9375 0.34375 1.75
-3.9375 0.34375 1.75
-3.9375 -0.941406 1.75
3.9375 -0.941406 1.75
-9.86865e-17 4.19922 1.75
3.9375 1.62891 1.75
-3.9375 1.62891 1.75
-2.625 -3.51172 1.75
2.625 -3.51172 1.75
1.3125 4.19922 1.75
-1.3125 4.19922 1.75
-3.9375 -2.22656 1.75
3.9375 -2.22656 1.75
-4.93432e-17 -4.79688 1.75
3.9375 2.91406 1.75
-3.9375 2.91406 1.75
2.625 4.19922 1.75
-2.625 4.19922 1.75
1.3125 -4.79688 1.75
-1.3125 -4.79688 1.75
-5.25 0.34375 1.75
5.25 0.34375 1.75
-3.9375 -3.51172 1.75
3.9375 -3.51172 1.75
-5.25 -0.941406 1.75
5.25 -0.941406 1.75
2.625 -4.79688 1.75
-2.625 -4.79688 1.75
-9.86865e-17 5.48438 1.75
-5.25 1.62891 1.75
5.25 1.62891 1.75
1.3125 5.48438 1.75
-1.3125 5.48438 1.75
-5.25 -2.22656 1.75
5.25 -2.22656 1.75
3.9375 4.19922 1.75
-3.9375 4.19922 1.75
-5.25 2.91406 1.75
5.25 2.91406 1.75
2.625 5.48438 1.75
-2.625 5.48438 1.75
-3.70074e-17 -6.08203 1.75
3.9375 -4.79688 1.75
-3.9375 -4.79688 1.75
1.3125 -6.08203 1.75
-1.3125 -6.08203 1.75
-5.25 -3.51172 1.75
5.25 -3.51172 1.75
6.5625 0.34375 1.75
-6.5625 0.34375 1.75
2.625 -6.08203 1.75
-2.625 -6.08203 1.75
-6.5625 -0.941406 1.75
6.5625 -0.941406 1.75
-5.25 4.19922 1.75
5.25 4.19922 1.75
3.9375 5.48438 1.75
-3.9375 5.48438 1.75
6.5625 1.62891 1.75
-6.5625 1.62891 1.75
-9.86865e-17 6.76953 1.75
-1.3125 6.76953 1.75
1.3125 6.76953 1.75
-6.5625 -2.22656 1.75
6.5625 -2.22656 1.75
-5.25 -4.79688 1.75
5.25 -4.79688 1.75
6.5625 2.91406 1.75
-6.5625 2.91406 1.75
3.9375 -6.08203 1.75
-3.9375 -6.08203 1.75
-2.625 6.76953 1.75
2.625 6.76953 1.75
-2.46716e-17 -7.36719 1.75
-6.5625 -3.51172 1.75
6.5625 -3.51172 1.75
-1.3125 -7.36719 1.75
1.3125 -7.36719 1.75
-5.25 5.48438 1.75
5.25 5.48438 1.75
-6.5625 4.19922 1.75
6.5625 4.19922 1.75
2.625 -7.36719 1.75
-2.625 -7.36719 1.75
-3.9375 6.76953 1.75
3.9375 6.76953 1.75
7.875 0.34375 1.75
-7.875 0.34375 1.75
7.875 -0.941406 1.75
-7.875 -0.941406 1.75
-5.25 -6.08203 1.75
5.25 -6.08203 1.75
7.875 1.62891 1.75
-7.875 1.62891 1.75
-9.86865e-17 8.05469 1.75
-6.5625 -4.79688 1.75
6.5625 -4.79688 1.75
-1.3125 8.05469 1.75
1.3125 8.05469 1.75
-7.875 -2.22656 1.75
7.875 -2.22656 1.75
3.9375 -7.36719 1.75
-3.9375 -7.36719 1.75
-7.875 2.91406 1.75
7.875 2.91406 1.75
-2.625 8.05469 1.75
2.625 8.05469 1.75
-6.5625 5.48438 1.75
6.5625 5.48438 1.75
-5.25 6.76953 1.75
5.25 6.76953 1.75
-7.875 -3.51172 1.75
7.875 -3.51172 1.75
-1.23358e-17 -8.65234 1.75
1.3125 -8.65234 1.75
-1.3125 -8.65234 1.75
-7.875 4.19922 1.75
7.875 4.19922 1.75
-6.5625 -6.08203 1.75
6.5625 -6.08203 1.75
-3.9375 8.05469 1.75
3.9375 8.05469 1.75
2.625 -8.65234 1.75
-2.625 -8.65234 1.75
-5.25 -7.36719 1.75
5.25 -7.36719 1.75
-9.1875 0.34375 1.75
9.1875 0.34375 1.75
-7.875 -4.79688 1.75
7.875 -4.79688 1.75
-9.1875 -0.941406 1.75
9.1875 -0.941406 1.75
-9.1875 1.62891 1.75
9.1875 1.62891 1.75
-9.86865e-17 9.33984 1.75
6.5625 6.76953 1.75
-6.5625 6.76953 1.75
-1.3125 9.33984 1.75
1.3125 9.33984 1.75
-9.1875 -2.22656 1.75
9.1875 -2.22656 1.75
3.9375 -8.65234 1.75
-3.9375 -8.65234 1.75
-7.875 5.48438 1.75
7.875 5.48438 1.75
-5.25 8.05469 1.75
5.25 8.05469 1.75
-9.1875 2.91406 1.75
9.1875 2.91406 1.75
-2.625 9.33984 1.75
2.625 9.33984 1.75
-9.1875 -3.51172 1.75
9.1875 -3.51172 1.75
6.5625 -7.36719 1.75
-6.5625 -7.36719 1.75
0 -9.9375 1.75
7.875 -6.08203 1.75
-7.875 -6.08203 1.75
1.3125 -9.9375 1.75
-1.3125 -9.9375 1.75
-9.1875 4.19922 1.75
9.1875 4.19922 1.75
-5.25 -8.65234 1.75
5.25 -8.65234 1.75
-3.9375 9.33984 1.75
3.9375 9.33984 1.75
2.625 -9.9375 1.75
-2.625 -9.9375 1.75
-9.1875 -4.79688 1.75
9.1875 -4.79688 1.75
-7.875 6.76953 1.75
7.875 6.76953 1.75
6.5625 8.05469 1.75
-6.5625 8.05469 1.75
10.5 0.34375 1.75
-10.5 0.34375 1.75
-10.5 -0.941406 1.75
10.5 -0.941406 1.75
-9.86865e-17 10.625 1.75
10.5 1.62891 1.75
-10.5 1.62891 1.75
3.9375 -9.9375 1.75
-3.9375 -9.9375 1.75
-9.1875 5.48438 1.75
9.1875 5.48438 1.75
1.3125 10.625 1.75
-1.3125 10.625 1.75
-5.25 9.33984 1.75
5.25 9.33984 1.75
-10.5 -2.22656 1.75
10.5 -2.22656 1.75
-7.875 -7.36719 1.75
7.875 -7.36719 1.75
6.5625 -8.65234 1.75
-6.5625 -8.65234 1.75
10.5 2.91406 1.75
-10.5 2.91406 1.75
2.625 10.625 1.75
-2.625 10.625 1.75
9.1875 -6.08203 1.75
-9.1875 -6.08203 1.75
-10.5 -3.51172 1.75
10.5 -3.51172 1.75
-2.46716e-17 -11.2227 1.75
-5.25 -9.9375 1.75
5.25 -9.9375 1.75
7.875 8.05469 1.75
-7.875 8.05469 1.75
-1.3125 -11.2227 1.75
1.3125 -11.2227 1.75
10.5 4.19922 1.75
-10.5 4.19922 1.75
3.9375 10.625 1.75
-3.9375 10.625 1.75
-9.1875 6.76953 1.75
9.1875 6.76953 1.75
-6.5625 9.33984 1.75
6.5625 9.33984 1.75
-2.625 -11.2227 1.75
2.625 -11.2227 1.75
-10.5 -4.79688 1.75
10.5 -4.79688 1.75
-7.875 -8.65234 1.75
7.875 -8.65234 1.75
-11.7611 0.34375 1.75
-9.1875 -7.36719 1.75
9.1875 -7.36719 1.75
-11.7611 -0.941406 1.75
11.8125 0.34375 1.75
10.5 5.48438 1.75
-10.5 5.48438 1.75
11.8125 -0.941406 1.75
-5.25 10.625 1.75
5.25 10.625 1.75
-11.7611 1.62891 1.75
-3.9375 -11.2227 1.75
3.9375 -11.2227 1.75
-6.5625 -9.9375 1.75
6.5625 -9.9375 1.75
-8.63507e-17 11.9102 1.75
11.8125 1.62891 1.75
-11.7611 -2.22656 1.75
1.3125 11.9102 1.75
-1.3125 11.9102 1.75
11.8125 -2.22656 1.75
-11.7611 2.91406 1.75
-10.5 -6.08203 1.75
10.5 -6.08203 1.75
11.8125 2.91406 1.75
2.625 11.9102 1.75
-2.625 11.9102 1.75
7.875 9.33984 1.75
-7.875 9.33984 1.75
-9.1875 8.05469 1.75
9.1875 8.05469 1.75
-11.7611 -3.51172 1.75
11.8125 -3.51172 1.75
-5.25 -11.2227 1.75
5.25 -11.2227 1.75
-6.5625 10.625 1.75
6.5625 10.625 1.75
-11.7611 4.19922 1.75
10.5 6.76953 1.75
-10.5 6.76953 1.75
-4.93432e-17 -12.5078 1.75
11.8125 4.19922 1.75
3.9375 11.9102 1.75
-3.9375 11.9102 1.75
-1.3125 -12.5078 1.75
1.3125 -12.5078 1.75
9.1875 -8.65234 1.75
-9.1875 -8.65234 1.75
-7.875 -9.9375 1.75
7.875 -9.9375 1.75
-11.7611 -4.79688 1.75
11.8125 -4.79688 1.75
-2.625 -12.5078 1.75
2.625 -12.5078 1.75
-10.5 -7.36719 1.75
10.5 -7.36719 1.75
-11.7611 5.48438 1.75
6.5625 -11.2227 1.75
-6.5625 -11.2227 1.75
-5.25 11.9102 1.75
5.25 11.9102 1.75
11.8125 5.48438 1.75
-13.0222 0.34375 1.75
-13.0222 -0.941406 1.75
-9.1875 9.33984 1.75
9.1875 9.33984 1.75
3.9375 -12.5078 1.75
-3.9375 -12.5078 1.75
-13.0222 1.62891 1.75
13.125 0.34375 1.75
13.125 -0.941406 1.75
-7.40149e-17 13.1953 1.75
-13.0222 -2.22656 1.75
7.875 10.625 1.75
-7.875 10.625 1.75
13.125 1.62891 1.75
10.5 8.05469 1.75
-10.5 8.05469 1.75
-11.7611 -6.08203 1.75
1.3125 13.1953 1.75
-1.3125 13.1953 1.75
11.8125 -6.08203 1.75
13.125 -2.22656 1.75
-13.0222 2.91406 1.75
13.125 2.91406 1.75
2.625 13.1953 1.75
-2.625 13.1953 1.75
-13.0222 -3.51172 1.75
-9.1875 -9.9375 1.75
9.1875 -9.9375 1.75
5.25 -12.5078 1.75
-5.25 -12.5078 1.75
-11.7611 6.76953 1.75
13.125 -3.51172 1.75
-6.5625 11.9102 1.75
6.5625 11.9102 1.75
-10.5 -8.65234 1.75
10.5 -8.65234 1.75
11.8125 6.76953 1.75
-13.0222 4.19922 1.75
-7.875 -11.2227 1.75
7.875 -11.2227 1.75
3.9375 13.1953 1.75
-3.9375 13.1953 1.75
13.125 4.19922 1.75
-7.40149e-17 -13.793 1.75
-1.3125 -13.793 1.75
1.3125 -13.793 1.75
-13.0222 -4.79688 1.75
-11.7611 -7.36719 1.75
11.8125 -7.36719 1.75
13.125 -4.79688 1.75
-2.625 -13.793 1.75
2.625 -13.793 1.75
-9.1875 10.625 1.75
9.1875 10.625 1.75
10.5 9.33984 1.75
-10.5 9.33984 1.75
-6.5625 -12.5078 1.75
6.5625 -12.5078 1.75
-13.0222 5.48438 1.75
-5.25 13.1953 1.75
5.25 13.1953 1.75
13.125 5.48438 1.75
-11.7611 8.05469 1.75
-7.875 11.9102 1.75
7.875 11.9102 1.75
-14.2833 0.34375 1.75
11.8125 8.05469 1.75
-14.2833 -0.941406 1.75
3.9375 -13.793 1.75
-3.9375 -13.793 1.75
-13.0222 -6.08203 1.75
-14.2833 1.62891 1.75
14.4375 0.34375 1.75
-14.2833 -2.22656 1.75
-10.5 -9.9375 1.75
10.5 -9.9375 1.75
13.125 -6.08203 1.75
14.4375 -0.941406 1.75
-6.16791e-17 14.4805 1.75
-9.1875 -11.2227 1.75
9.1875 -11.2227 1.75
14.4375 1.62891 1.75
1.3125 14.4805 1.75
-1.3125 14.4805 1.75
-14.2833 2.91406 1.75
-11.7611 -8.65234 1.75
14.4375 -2.22656 1.75
11.8125 -8.65234 1.75
-13.0222 6.76953 1.75
-14.2833 -3.51172 1.75
2.625 14.4805 1.75
-2.625 14.4805 1.75
14.4375 2.91406 1.75
-6.5625 13.1953 1.75
6.5625 13.1953 1.75
5.25 -13.793 1.75
-5.25 -13.793 1.75
13.125 6.76953 1.75
-7.875 -12.5078 1.75
7.875 -12.5078 1.75
14.4375 -3.51172 1.75
-14.2833 4.19922 1.75
10.5 10.625 1.75
-10.5 10.625 1.75
-13.0222 -7.36719 1.75
3.9375 14.4805 1.75
-3.9375 14.4805 1.75
-11.7611 9.33984 1.75
14.4375 4.19922 1.75
9.1875 11.9102 1.75
-9.1875 11.9102 1.75
13.125 -7.36719 1.75
11.8125 9.33984 1.75
-14.2833 -4.79688 1.75
-9.86865e-17 -15.0781 1.75
1.3125 -15.0781 1.75
-1.3125 -15.0781 1.75
14.4375 -4.79688 1.75
-6.5625 -13.793 1.75
6.5625 -13.793 1.75
-14.2833 5.48438 1.75
2.625 -15.0781 1.75
-2.625 -15.0781 1.75
-13.0222 8.05469 1.75
-7.875 13.1953 1.75
7.875 13.1953 1.75
-10.5 -11.2227 1.75
10.5 -11.2227 1.75
-11.7611 -9.9375 1.75
13.125 8.05469 1.75
5.25 14.4805 1.75
-5.25 14.4805 1.75
11.8125 -9.9375 1.75
14.4375 5.48438 1.75
9.1875 -12.5078 1.75
-9.1875 -12.5078 1.75
-14.2833 -6.08203 1.75
-15.5445 0.34375 1.75
-15.5445 -0.941406 1.75
-3.9375 -15.0781 1.75
3.9375 -15.0781 1.75
-15.5445 1.62891 1.75
-13.0222 -8.65234 1.75
14.4375 -6.08203 1.75
-15.5445 -2.22656 1.75
13.125 -8.65234 1.75
15.75 0.34375 1.75
-4.93432e-17 15.7656 1.75
15.75 -0.941406 1.75
-14.2833 6.76953 1.75
-15.5445 2.91406 1.75
1.3125 15.7656 1.75
-1.3125 15.7656 1.75
15.75 1.62891 1.75
-11.7611 10.625 1.75
10.5 11.9102 1.75
-10.5 11.9102 1.75
7.875 -13.793 1.75
-7.875 -13.793 1.75
11.8125 10.625 1.75
-6.5625 14.4805 1.75
6.5625 14.4805 1.75
[...]
POINT_DATA 43634
FIELD attributes 1
k 1 43634 float
0.452449 0.453959 0.453076 0.451909 0.453512 0.454514 0.450908 0.45165 0.4503 0.455518
0.45512 0.456054 0.453851 0.451537 0.453193 0.455238 0.44934 0.452535 0.44992 0.450184
0.448714 0.454868 0.456717 0.457162 0.456765 0.457666 0.451231 0.448339 0.454946 0.451343
0.452989 0.456217 0.447838 0.453734 0.449722 0.456549 0.458222 0.448736 0.447199 0.454694
0.457548 0.458828 0.452582 0.448094 0.449938 0.446773 0.459251 0.458451 0.451237 0.456464
0.456433 0.45892 0.452877 0.457495 0.459705 0.458238 0.446428 0.449573 0.45544 0.44736
0.445726 0.454567 0.458626 0.451514 0.446464 0.447891 0.454443 0.448674 0.445202 0.460484
0.460334 0.45815 0.460824 0.460168 0.456319 0.459885 0.458355 0.451152 0.461235 0.459963
0.452827 0.45907 0.446243 0.453614 0.4505 0.444846 0.457664 0.449464 0.445024 0.444213
0.44604 0.45451 0.459992 0.458066 0.461214 0.456959 0.447786 0.461828 0.459862 0.443615
0.447443 0.462152 0.456229 0.461119 0.461902 0.462468 0.444647 0.452946 0.446153 0.456439
0.462866 0.461741 0.443256 0.449472 0.460743 0.451133 0.461092 0.452829 0.459796 0.462596
0.460508 0.449465 0.44357 0.457972 0.462278 0.442658 0.444739 0.454542 0.461749 0.463392
0.461626 0.447815 0.460311 0.442047 0.446265 0.444563 0.456176 0.443068 0.45227 0.456256
0.462642 0.463876 0.464208 0.463642 0.446179 0.460304 0.459732 0.463466 0.441698 0.448439
0.464569 0.463535 0.461542 0.464026 0.451204 0.46392 0.457969 0.463539 0.452869 0.463786
0.449558 0.464282 0.442087 0.455978 0.442954 0.441136 0.4434 0.45458 0.464035 0.464986
0.463444 0.444549 0.460578 0.441472 0.451519 0.447901 0.464791 0.440528 0.445124 0.456316
0.46456 0.464756 0.461502 0.465655 0.464496 0.45971 0.465971 0.4654 0.446236 0.465577
0.463332 0.465513 0.440137 0.447489 0.46624 0.465301 0.458026 0.465126 0.442913 0.461016
0.455714 0.441318 0.468132 0.451294 0.452927 0.467317 0.44064 0.469346 0.449638 0.466564
0.465253 0.444585 0.466722 0.442032 0.439683 0.439857 0.450814 0.454595 0.466986 0.461494
0.465663 0.46618 0.463274 0.470866 0.447961 0.443964 0.439032 0.465836 0.459732 0.45632
0.467013 0.467465 0.465148 0.46706 0.461478 0.441294 0.467209 0.467712 0.472799 0.446303
0.446605 0.438563 0.442964 0.468108 0.4397 0.455453 0.467078 0.467908 0.458055 0.467188
0.463296 0.467 0.451334 0.461484 0.466836 0.452988 0.473563 0.475277 0.444688 0.471755
0.438257 0.45023 0.449667 0.467044 0.468214 0.465046 0.467682 0.439233 0.476015 0.454643
0.440667 0.438236 0.470591 0.448014 0.459775 0.4676 0.479099 0.442735 0.4375 0.46193
0.439706 0.441374 0.469604 0.456331 0.469963 0.466977 0.468704 0.438135 0.455303 0.446403
0.478146 0.443093 0.469274 0.482826 0.445653 0.436976 0.469064 0.469469 0.467999 0.463292
0.465068 0.468358 0.458051 0.469636 0.468922 0.469667 0.461503 0.468337 0.44482 0.469232
0.466861 0.436692 0.449659 0.487284 0.451387 0.453056 0.43979 0.47112 0.469975 0.468857
0.449741 0.480746 0.477427 0.437834 0.454734 0.462451 0.438143 0.485037 0.481187 0.44149
0.459791 0.439328 0.436743 0.469645 0.475084 0.448126 0.490447 0.441475 0.435932 0.456409
0.465102 0.469152 0.470398 0.468804 0.443221 0.473564 0.43659 0.455192 0.463266 0.469267
0.492406 0.446531 0.466845 0.469746 0.444597 0.435418 0.497042 0.471089 0.470921 0.471297
0.458092 0.461538 0.470047 0.472529 0.470817 0.471517 0.438203 0.472669 0.484253 0.439885
0.468722 0.470811 0.444935 0.43516 0.448961 0.504674 0.441608 0.436565 0.463004 0.451493
0.497858 0.453127 0.471769 0.470722 0.459808 0.449878 0.490421 0.454803 0.465063 0.470213
0.472005 0.484893 0.436406 0.466892 0.4704 0.497618 0.438014 0.435212 0.448263 0.463282
0.480926 0.470693 0.443336 0.456499 0.440243 0.43439 0.506622 0.435028 0.454973 0.472093
0.470639 0.513157 0.468684 0.471241 0.478102 0.446649 0.487326 0.438302 0.46157 0.443483
0.433907 0.44002 0.517669 0.474218 0.436612 0.472004 0.503299 0.458182 0.47294 0.473175
0.472761 0.476083 0.470592 0.472462 0.445051 0.473367 0.472695 0.441755 0.43497 0.46345
0.466884 0.471321 0.465036 0.522193 0.4481 0.433628 0.471414 0.530498 0.471837 0.468698
0.459866 0.45162 0.453227 0.47262 0.473543 0.449999 0.463342 0.474878 0.454862 0.472264
0.503603 0.434921 0.49488 0.443482 0.448372 0.436665 0.433697 0.515252 0.438473 0.490305
0.436746 0.472876 0.470574 0.508611 0.433456 0.454569 0.4885 0.456549 0.544392 0.472509
0.473832 0.439044 0.432902 0.530222 0.440204 0.461591 0.435042 0.475637 0.446768 0.53125
0.483823 0.474293 0.442394 0.432402 0.466835 0.458248 0.47237 0.548564 0.468713 0.472657
0.474842 0.465093 0.441934 0.475058 0.474634 0.472451 0.474201 0.472698 0.480537 0.433405
0.463677 0.445205 0.558745 0.474561 0.475188 0.47339 0.470552 0.432073 0.447185 0.569641
0.459942 0.463362 0.436941 0.513642 0.438672 0.451706 0.475342 0.474523 0.474055 0.453327
0.493058 0.43521 0.478406 0.450084 0.539879 0.454947 0.443658 0.472458 0.474561 0.433408
0.448483 0.440389 0.521822 0.431897 0.454039 0.508111 0.432219 0.435216 0.540503 0.592173
0.476744 0.433512 0.456594 0.468684 0.474422 0.475652 0.466856 0.572919 0.461645 0.473553
0.498088 0.437774 0.431418 0.473493 0.565431 0.446917 0.470545 0.474057 0.477008 0.465141
0.490924 0.458272 0.441313 0.430854 0.442103 0.474193 0.596201 0.431884 0.463695 0.474325
0.475987 0.437129 0.476764 0.474953 0.472445 0.4354 0.445372 0.614696 0.47693 0.476569
0.518227 0.547765 0.485968 0.463378 0.438845 0.430505 0.446288 0.477034 0.476459 0.45998
0.495417 0.43368 0.630717 0.586222 0.476224 0.468673 0.451786 0.477213 0.476418 0.453404
0.482535 0.443818 0.47054 0.474491 0.440551 0.450201 0.476252 0.474327 0.474792 0.46692
0.455047 0.477484 0.431997 0.453436 0.430374 0.474772 0.448635 0.635898 0.431935 0.461706
0.666231 0.472397 0.475495 0.547425 0.430751 0.433726 0.525646 0.45669 0.476354 0.477521
0.578024 0.46514 0.510274 0.436376 0.429881 0.435582 0.447071 0.480132 0.437308 0.619904
0.554726 0.476049 0.442261 0.433855 0.522222 0.458335 0.499726 0.598023 0.440122 0.429277
0.474347 0.476575 0.463545 0.430381 0.439029 0.477777 0.476248 0.671457 0.700078 0.44551
0.463433 0.478691 0.497209 0.432145 0.470537 0.478824 0.47854 0.468712 0.492444 0.654882
0.475561 0.460011 0.42897 0.445342 0.475512 0.478955 0.478416 0.472381 0.478749 0.476145
0.466934 0.726914 0.440738 0.443958 0.47622 0.477986 0.451897 0.479149 0.478338 0.476249
0.453481 0.487256 0.477902 0.430462 0.450334 0.474293 0.477085 0.435799 0.730078 0.455115
0.434064 0.452737 0.428881 0.461734 0.465158 0.560678 0.448762 0.607951 0.780082 0.437534
0.430486 0.456776 0.478291 0.479392 0.429234 0.432269 0.432335 0.583968 0.525449 0.54917
0.478088 0.671221 0.635175 0.447187 0.442437 0.434897 0.428309 0.483693 0.526 0.470533
0.439254 0.476255 0.478313 0.706207 0.458425 0.472404 0.468744 0.463226 0.428861 0.4764
0.476812 0.510726 0.427741 0.438734 0.498373 0.430611 0.463486 0.47822 0.479596 0.826995
0.445638 0.755134 0.476643 0.790543 0.474239 0.47767 0.46692 0.480617 0.480765 0.480498
0.460075 0.500187 0.481553 0.427478 0.44414 0.440946 0.43432 0.480925 0.480406 0.436055
0.477768 0.874269 0.615956 0.432581 0.444122 0.478168 0.479826 0.478071 0.428918 0.565535
0.476228 0.478783 0.684465 0.452011 0.437775 0.481084 0.48031 0.492764 0.453577 0.865627
0.46523 0.450436 0.46176 0.427371 0.451778 0.455173 0.430846 0.527666 0.472396 0.470554
0.448855 0.775377 0.947035 0.477542 0.456816 0.480238 0.481261 0.480173 0.428971 0.474266
0.477387 0.442627 0.43082 0.427664 0.468739 0.439462 0.478217 0.636931 0.447303 0.487874
0.581106 0.478178 0.480133 0.723566 0.433447 0.426768 0.546285 0.499029 0.42911 0.458481
0.427327 0.462593 0.477874 0.463501 0.84293 0.47615 0.89555 0.479238 0.434577 0.480197
0.481479 0.466971 1.00538 0.432847 0.437265 0.426254 0.524227 0.445794 0.436289 0.62213
0.694378 0.974064 0.431109 0.441134 0.460143 0.482586 0.484703 0.568973 0.479348 0.509367
0.482454 0.482764 0.425978 0.442719 0.790888 0.437974 0.478174 0.480505 0.472384 0.482401
0.482901 0.477881 0.427416 0.4443 0.480161 0.48173 1.08933 0.474286 0.465268 0.470576
0.42938 1.04948 0.478414 0.528917 0.478814 0.482328 0.483007 0.499286 0.46181 0.917711
0.425842 0.450529 0.476145 0.478483 0.46875 0.479642 0.482452 0.439646 1.17825 0.452128
0.442801 0.45371 0.482224 0.483186 0.433101 0.45055 0.434815 0.427363 0.455299 0.48013
0.481961 0.479226 0.429269 0.426097 0.431365 0.499275 0.427646 0.492719 0.448999 0.701192
0.47811 0.712841 0.480866 0.623949 0.46351 0.425831 0.461564 0.626448 0.431985 0.425268
0.467029 0.456909 1.08061 0.857362 0.436497 0.801589 0.57197 0.48217 0.483431 0.447482
0.429629 1.24285 1.05026 0.435809 0.424747 0.570869 0.474253 0.472408 0.540304 0.458549
0.441309 0.933114 0.481191 0.438178 1.23789 0.476183 0.479529 0.4882 0.470582 0.445983
0.479286 0.480114 0.482248 0.484619 0.480154 0.424437 0.441237 0.519929 0.484456 0.484784
0.477146 0.425964 0.465252 0.42791 0.482167 0.483636 0.529433 0.460218 0.4844 0.484875
0.479551 1.37853 0.478069 1.28699 1.10074 0.468787 0.481225 0.433369 0.431639 0.444485
0.506717 0.484365 0.484976 0.424334 0.449117 0.435056 0.439851 0.705432 0.807865 0.485096
0.42989 0.461901 1.47818 0.480725 0.628751 0.482134 0.483806 0.484266 0.485184 0.480082
0.49888 0.426186 0.942194 0.436735 0.482612 0.467023 0.474247 0.425744 0.497942 0.442995
0.42761 0.424571 0.476165 0.472439 1.31303 0.424375 0.460216 0.428157 0.452278 0.571448
0.453862 0.430388 0.423762 0.821133 0.480222 0.681759 0.450725 0.480783 1.05294 0.455468
1.11164 0.484181 0.485402 0.478089 1.54585 0.463587 0.604202 0.470582 0.449201 0.480053
0.438419 1.34545 0.423194 0.434284 0.481689 0.483346 0.457078 0.559328 0.482079 0.484092
0.491886 0.431946 0.447687 0.43364 0.441539 0.426439 1.6013 0.529216 0.424505 0.475841
0.430204 0.480619 0.480042 0.439728 0.422901 0.458692 0.486683 0.468801 0.482968 0.531934
0.486525 0.486808 0.48418 0.48554 0.810585 1.32292 0.435314 0.70729 1.58099 0.945491
0.486442 0.48689 0.446178 0.465291 1.81055 0.428453 0.460334 0.629085 0.476129 0.474294
0.42287 0.447612 0.486411 0.487021 0.514712 1.90937 0.487985 1.11406 0.482322 0.436992
0.478099 0.482054 0.440109 0.472429 0.484453 0.444686 0.481404 0.497666 0.424709 0.484173
0.485714 1.92598 0.480879 0.482229 0.426719 0.486344 0.487218 0.57104 0.462018 1.58526
0.503283 0.480026 0.424166 0.422923 0.458666 0.467038 0.470585 0.42593 0.423042 0.480916
1.3186 0.432223 0.483324 0.430529 2.0266 0.428651 0.422199 0.443226 0.965707 0.433894
0.486254 0.487379 0.755016 1.93749 0.485545 1.31895 0.428794 0.642173 2.09637 0.810287
0.943997 0.432564 0.421631 0.452469 0.484105 0.486021 0.438682 0.454023 1.81675 0.424991
0.481841 0.463721 0.528029 0.482044 0.450935 0.495688 0.70664 0.435568 0.580848 0.455613
2.05062 0.484728 2.15596 0.423026 0.474135 1.10859 0.476159 0.449405 2.15739 1.56208
0.438034 0.421413 0.478064 0.427049 0.474305 0.486225 0.487502 0.457234 0.488753 0.441789
0.46883 0.488868 0.488626 0.545286 2.27353 1.91076 0.627919 0.447885 0.481996 0.482755
0.48897 0.488542 0.480038 1.30142 0.472398 2.31532 0.458853 0.4839 0.465423 0.481662
0.42142 0.44589 0.483738 0.49086 0.484051 0.489101 0.488489 0.523178 0.48631 2.3775
0.446389 0.495761 0.423247 0.437251 0.42531 0.430802 2.0777 0.486227 0.4877 0.432472
0.56959 0.460476 0.482012 0.429112 2.27365 2.4359 0.481999 0.440355 0.488431 0.489257
0.484987 1.84081 1.51633 0.434153 2.42817 0.93841 0.421451 0.456873 0.444921 0.80699
0.508943 2.46339 0.470635 1.09632 0.422577 2.50363 0.427389 0.42427 0.421444 0.467146
0.462135 0.487569 0.478056 0.47619 2.58287 0.703885 0.426866 0.420607 0.488364 0.489399
2.37941 0.483164 0.484056 1.13578 0.423577 1.27321 0.486182 0.487966 0.840121 0.525853
0.48003 0.486509 0.474259 1.63166 2.62983 0.430672 0.420114 0.685275 0.443469 0.483223
0.425641 0.499753 2.29682 0.421556 0.472142 2.32631 0.435836 0.438922 0.482599 0.484189
1.73656 2.60671 0.625509 0.604783 2.5806 0.481995 0.463838 0.488321 0.489546 0.41995
0.436068 2.7199 0.452638 1.45334 0.454175 0.48253 2.17624 0.451097 0.431072 0.490857
2.53033 0.485363 0.429398 0.490991 0.490743 0.455735 0.559645 2.63257 0.468918 0.485447
0.432763 0.472438 0.449568 0.442019 0.491096 0.490682 0.486106 0.488185 2.53533 0.457338
0.427714 2.41581 0.493698 0.42391 0.419945 0.443854 2.06483 0.928992 0.484045 0.421823
0.493354 0.566925 1.07815 0.448073 0.483079 0.491193 0.490619 0.532067 2.50009 0.488303
0.489721 0.486768 0.465557 0.800972 0.458964 0.437507 2.27791 1.23619 0.478078 1.6117
2.61766 0.425982 1.94606 2.39673 0.480004 0.476158 0.434456 2.83617 0.446606 0.490549
0.491327 0.419974 0.454736 0.69946 2.75681 2.13138 0.44058 0.514931 0.460598 2.25643
0.482001 0.483678 1.37888 0.484587 0.47073 0.420904 2.43711 0.489587 0.484412 0.419805
0.422575 1.82189 0.48609 0.422181 0.488384 0.483234 0.522886 0.445146 0.490493 0.491488
0.488275 0.489926 0.485779 0.425088 0.419052 2.103 2.35339 1.98738 0.424229 0.467285
0.474267 0.429707 0.621821 1.30912 0.4314 0.930729 0.484003 0.462246 2.34253 1.98934
0.418625 0.428743 0.42013 0.469815 0.428035 1.70935 0.503911 0.730583 1.94597 2.37605
0.483308 0.436124 0.487129 1.47757 1.8478 2.755 2.19752 0.439167 0.443687 0.490462
0.491632 0.629088 2.95488 1.05481 0.433956 0.418457 0.916077 0.426347 1.793 1.19185
2.60554 0.487055 0.433102 2.02291 1.58283 0.493016 0.488211 0.463923 0.493154 0.492897
1.71083 0.479994 0.478071 0.490143 0.573765 0.422505 2.21635 0.486103 0.792761 0.47255
0.563183 0.483957 0.469032 0.49324 0.492844 0.496532 0.488642 1.29802 0.490598 0.420432
1.6497 0.481996 1.85114 0.452761 2.29285 0.454306 0.418455 0.441554 0.451235 0.424596
0.455867 0.442243 0.490429 0.491758 0.493317 0.492791 1.48414 0.484991 0.540716 1.57881
2.32498 0.449736 2.13814 0.693687 0.476145 0.484217 1.68964 0.486123 0.457445 2.47224
0.483987 1.51441 0.437781 2.85108 0.434762 2.19119 0.465626 0.44826 1.34296 0.492718
0.493458 0.430053 2.79176 0.418538 0.45223 0.483882 0.487465 0.428366 1.54096 0.459048
0.485568 1.45326 0.488171 1.36551 2.34552 0.520623 2.01159 0.491696 0.490351 1.38696
0.420779 0.42284 0.519399 0.426694 0.4192 0.446793 0.470816 2.20918 0.44083 0.49039
0.49195 0.418211 0.420805 0.486071 0.616886 0.492657 0.493622 1.40543 0.43175 0.474375
1.83338 1.02726 0.417537 0.423265 0.483989 0.460684 1.14165 2.30939 0.488929 1.33664
0.900315 1.27237 0.418738 0.467047 1.28203 0.479987 0.467359 0.425001 2.26272 1.46677
1.21371 0.417109 0.426808 0.507679 1.02063 0.44533 1.66711 0.481966 2.19229 1.27992
0.775804 2.56083 0.43641 0.492633 0.49373 2.109 2.88343 0.782926 0.462344 0.488649
0.484005 0.652651 0.478066 2.55862 0.416945 0.431816 1.22944 1.16827 1.51698 0.488175
0.433403 0.421112 0.490343 0.43944 1.21446 0.484787 0.492183 0.485476 0.486464 1.17424
0.558684 1.16481 1.92176 2.09747 0.490552 0.49522 0.443884 0.423247 0.495346 0.495102
0.484801 0.472636 0.587137 0.48773 2.16877 0.487393 0.419033 0.499195 1.38282 0.495422
0.495044 0.42871 1.74792 0.686641 0.486026 0.439132 0.41701 1.07279 0.469113 0.464018
2.28803 0.492604 0.49384 1.1314 1.06855 0.427019 0.476223 0.495499 0.494999 0.484505
1.10611 0.489196 0.548652 2.25452 1.59058 1.2644 0.430399 2.32361 0.45291 0.442472
0.454442 2.64824 0.42535 0.435041 0.451409 1.08791 0.486697 0.490306 2.0369 0.99659
0.456009 0.986501 2.89883 0.449453 0.417149 0.438055 0.494933 0.495642 0.986903 0.492354
0.421489 1.12774 1.45095 1.04218 0.449917 0.488163 2.21632 0.41938 0.493689 0.481932
0.515465 1.15072 0.610945 0.465697 0.457588 0.525535 1.83549 0.882264 0.484716 1.71437
0.492552 0.494043 1.01286 0.490785 0.432046 0.483992 0.448428 0.417529 1.09464 1.97747
0.423664 0.416636 0.418996 1.32753 0.49578 0.494868 0.480005 0.470878 0.474479 0.913463
0.459172 1.65615 0.909092 0.415982 0.421334 1.05367 0.44108 2.05884 0.46386 0.417345
0.486864 0.962259 0.771718 0.446954 0.486031 0.48594 0.488015 0.510835 1.22187 1.52345
0.415566 0.424756 1.60437 1.10642 0.460779 0.959046 2.39123 0.490288 0.467404 0.478118
0.847258 0.494847 0.495866 0.490062 0.819409 0.427374 0.485712 2.76871 0.436679 0.419752
0.485298 0.489436 0.976551 0.839854 0.492508 0.492502 0.553676 0.49425 2.99121 0.421917
0.433679 1.38329 0.445508 0.415474 0.429588 1.0859 0.673993 1.94574 0.89112 0.425675
0.42907 0.488119 0.678381 1.38785 0.483692 0.417639 0.462428 0.497501 0.439688 0.497622
0.497382 0.501436 0.485091 1.2779 1.03297 0.787735 0.908679 0.491049 0.472673 0.598475
1.90796 1.04259 0.879246 0.49769 0.497325 0.436636 0.415608 0.777744 0.494823 0.495984
0.966221 0.963482 0.424009 0.444087 0.476331 1.97876 0.430711 0.982902 0.483938 0.469159
0.497764 0.497289 0.8277 1.16926 0.555173 0.492481 0.487763 0.464114 0.481952 0.862581
0.420158 0.845866 0.490273 0.494381 0.734223 0.486038 0.900968 2.50921 0.435321 0.604334
0.415752 0.446537 2.8633 0.485481 1.5619 0.418026 0.497223 0.497895 0.492744 0.835141
0.721464 0.511009 0.495268 3.08711 0.48724 0.48836 1.03456 0.422329 0.442681 0.438304
0.494762 0.496174 1.98412 0.48006 0.529519 0.432343 0.453068 0.486301 0.48969 0.45458
0.77032 1.41797 0.451557 0.788466 0.4881 0.75924 0.844114 0.456119 0.684047 0.415852
0.497151 0.498018 0.465804 0.417199 0.415007 0.474508 1.97438 0.45005 0.426066 0.90899
1.23411 0.460377 0.415945 0.457698 0.470937 0.419355 0.41439 0.67106 0.485709 0.427771
0.49127 1.99207 0.765495 0.448565 0.492458 0.51344 0.424362 0.486602 0.784963 0.478203
0.422568 0.414052 0.441281 0.737176 0.494535 0.418429 0.420584 0.459295 0.491154 0.961511
0.499457 0.548152 0.717632 0.844654 0.494702 0.978157 0.497136 0.498103 0.490249 1.71542
0.499338 0.499567 0.496347 1.18542 0.632693 0.429409 2.50071 0.669195 0.879602 0.447116
0.860559 2.87217 0.433985 0.499276 0.499629 1.03115 0.436948 0.414038 0.427178 0.485623
0.928859 3.08921 0.492991 0.467497 0.625955 0.460897 0.485994 0.479544 0.416281 0.692604
0.422692 1.98723 0.730283 0.499244 0.499702 0.728236 0.48393 0.78507 0.68849 1.42128
0.503203 0.445688 0.431033 0.497122 0.498213 0.586088 0.669466 0.607094 1.97725 0.414192
0.433972 0.841949 0.472725 0.488097 0.488695 0.439896 0.476378 0.499184 0.499827 0.482026
0.487547 0.489984 0.462518 0.492425 1.97793 0.418828 0.49469 0.488609 0.858533 0.682724
0.725123 0.584324 0.496475 0.597218 0.486129 0.494757 0.619725 0.560044 0.421009 0.486644
0.491469 0.444266 0.469228 0.416709 0.666142 0.506023 0.499109 0.499944 0.443498 0.414339
0.490227 2.54179 0.54806 0.424788 0.496452 0.435617 1.41886 0.745696 0.480119 0.426493
2.83828 0.625211 0.497058 0.498381 0.464177 3.01666 0.432671 0.668662 0.637069 0.751563
0.532484 1.94255 0.486112 0.493155 0.428123 0.885836 0.546261 0.438538 0.556315 0.786247
1.41116 0.423081 0.499086 0.500025 0.856465 0.501242 0.442855 0.924167 0.414114 0.50114
0.501345 0.415383 0.413346 0.474536 0.414576 0.456735 1.1932 1.96525 0.494674 0.633647
0.512181 0.501076 0.501417 0.419261 0.487233 0.417392 0.412827 0.496623 0.453166 0.622734
0.492408 0.454685 0.695131 0.417109 1.96942 0.451651 0.46587 0.478264 0.575618 0.471007
0.582537 0.894117 0.54203 0.429735 0.456208 0.488068 0.659423 0.515346 0.485968 0.49203
0.496989 0.762936 0.501032 0.501491 0.498552 0.420352 0.41257 0.450164 0.48609 0.494952
0.52023 0.421408 0.511711 0.457761 0.499076 0.500124 0.484007 1.80648 0.490266 0.488959
1.25647 0.441469 2.51122 0.990198 0.448712 0.434298 0.500977 0.501603 0.896982 0.635251
2.76979 0.412584 0.424639 0.581128 0.47509 0.414955 0.490203 0.491716 0.477769 0.487853
0.820679 0.459351 0.437201 2.72534 0.693251 0.58122 0.515349 0.707895 1.70702 0.504451
0.482084 0.431363 0.447279 0.542213 0.46758 0.803812 1.40484 0.49463 0.484341 0.500916
0.501711 0.493321 0.431101 0.412755 0.487015 0.417507 0.460966 0.613221 0.4773 0.496974
1.96931 0.476389 0.589761 0.42522 0.499022 0.500288 0.419723 0.48656 0.489259 0.496799
0.42352 0.498675 0.589506 0.472812 0.632822 0.539679 0.817591 0.492397 1.97372 0.426839
0.445849 0.440111 0.726091 0.446438 0.702005 0.475695 0.731483 0.415386 0.815564 0.500659
0.563196 0.556573 0.500885 0.501793 0.480168 0.462588 0.412958 0.440245 0.495093 0.503037
0.486517 0.497292 0.508202 0.872156 0.502944 0.503149 0.446828 0.421812 0.555075 0.576792
0.42844 1.40987 2.54184 0.469308 0.435872 0.492366 0.502896 0.503224 0.432982 2.70638