# vtk DataFile Version 2.0
sampleSurface
ASCII
DATASET POLYDATA
POINTS 43634 double
-9.86865e-17 0.34375 1.75
-8.63507e-17 -0.941406 1.75
1.3125 0.34375 1.75
-1.3125 0.34375 1.75
-1.3125 -0.941406 1.75
1.3125 -0.941406 1.75
-9.86865e-17 1.62891 1.75
1.3125 1.62891 1.75
-1.3125 1.62891 1.75
-7.40149e-17 -2.22656 1.75
-1.3125 -2.22656 1.75
1.3125 -2.22656 1.75
2.625 0.34375 1.75
-2.625 0.34375 1.75
-2.625 -0.941406 1.75
2.625 -0.941406 1.75
-9.86865e-17 2.91406 1.75
2.625 1.62891 1.75
-2.625 1.62891 1.75
1.3125 2.91406 1.75
-1.3125 2.91406 1.75
-2.625 -2.22656 1.75
2.625 -2.22656 1.75
-6.16791e-17 -3.51172 1.75
-1.3125 -3.51172 1.75
1.3125 -3.51172 1.75
2.625 2.91406 1.75
-2.625 2.91406 1.75
3.9375 0.34375 1.75
-3.9375 0.34375 1.75
-3.9375 -0.941406 1.75
3.9375 -0.941406 1.75
-9.86865e-17 4.19922 1.75
3.9375 1.62891 1.75
-3.9375 1.62891 1.75
-2.625 -3.51172 1.75
2.625 -3.51172 1.75
1.3125 4.19922 1.75
-1.3125 4.19922 1.75
-3.9375 -2.22656 1.75
3.9375 -2.22656 1.75
-4.93432e-17 -4.79688 1.75
3.9375 2.91406 1.75
-3.9375 2.91406 1.75
2.625 4.19922 1.75
-2.625 4.19922 1.75
1.3125 -4.79688 1.75
-1.3125 -4.79688 1.75
-5.25 0.34375 1.75
5.25 0.34375 1.75
-3.9375 -3.51172 1.75
3.9375 -3.51172 1.75
-5.25 -0.941406 1.75
5.25 -0.941406 1.75
2.625 -4.79688 1.75
-2.625 -4.79688 1.75
-9.86865e-17 5.48438 1.75
-5.25 1.62891 1.75
5.25 1.62891 1.75
1.3125 5.48438 1.75
-1.3125 5.48438 1.75
-5.25 -2.22656 1.75
5.25 -2.22656 1.75
3.9375 4.19922 1.75
-3.9375 4.19922 1.75
-5.25 2.91406 1.75
5.25 2.91406 1.75
2.625 5.48438 1.75
-2.625 5.48438 1.75
-3.70074e-17 -6.08203 1.75
3.9375 -4.79688 1.75
-3.9375 -4.79688 1.75
1.3125 -6.08203 1.75
-1.3125 -6.08203 1.75
-5.25 -3.51172 1.75
5.25 -3.51172 1.75
6.5625 0.34375 1.75
-6.5625 0.34375 1.75
2.625 -6.08203 1.75
-2.625 -6.08203 1.75
-6.5625 -0.941406 1.75
6.5625 -0.941406 1.75
-5.25 4.19922 1.75
5.25 4.19922 1.75
3.9375 5.48438 1.75
-3.9375 5.48438 1.75
6.5625 1.62891 1.75
-6.5625 1.62891 1.75
-9.86865e-17 6.76953 1.75
-1.3125 6.76953 1.75
1.3125 6.76953 1.75
-6.5625 -2.22656 1.75
6.5625 -2.22656 1.75
-5.25 -4.79688 1.75
5.25 -4.79688 1.75
6.5625 2.91406 1.75
-6.5625 2.91406 1.75
3.9375 -6.08203 1.75
-3.9375 -6.08203 1.75
-2.625 6.76953 1.75
2.625 6.76953 1.75
-2.46716e-17 -7.36719 1.75
-6.5625 -3.51172 1.75
6.5625 -3.51172 1.75
-1.3125 -7.36719 1.75
1.3125 -7.36719 1.75
-5.25 5.48438 1.75
5.25 5.48438 1.75
-6.5625 4.19922 1.75
6.5625 4.19922 1.75
2.625 -7.36719 1.75
-2.625 -7.36719 1.75
-3.9375 6.76953 1.75
3.9375 6.76953 1.75
7.875 0.34375 1.75
-7.875 0.34375 1.75
7.875 -0.941406 1.75
-7.875 -0.941406 1.75
-5.25 -6.08203 1.75
5.25 -6.08203 1.75
7.875 1.62891 1.75
-7.875 1.62891 1.75
-9.86865e-17 8.05469 1.75
-6.5625 -4.79688 1.75
6.5625 -4.79688 1.75
-1.3125 8.05469 1.75
1.3125 8.05469 1.75
-7.875 -2.22656 1.75
7.875 -2.22656 1.75
3.9375 -7.36719 1.75
-3.9375 -7.36719 1.75
-7.875 2.91406 1.75
7.875 2.91406 1.75
-2.625 8.05469 1.75
2.625 8.05469 1.75
-6.5625 5.48438 1.75
6.5625 5.48438 1.75
-5.25 6.76953 1.75
5.25 6.76953 1.75
-7.875 -3.51172 1.75
7.875 -3.51172 1.75
-1.23358e-17 -8.65234 1.75
1.3125 -8.65234 1.75
-1.3125 -8.65234 1.75
-7.875 4.19922 1.75
7.875 4.19922 1.75
-6.5625 -6.08203 1.75
6.5625 -6.08203 1.75
-3.9375 8.05469 1.75
3.9375 8.05469 1.75
2.625 -8.65234 1.75
-2.625 -8.65234 1.75
-5.25 -7.36719 1.75
5.25 -7.36719 1.75
-9.1875 0.34375 1.75
9.1875 0.34375 1.75
-7.875 -4.79688 1.75
7.875 -4.79688 1.75
-9.1875 -0.941406 1.75
9.1875 -0.941406 1.75
-9.1875 1.62891 1.75
9.1875 1.62891 1.75
-9.86865e-17 9.33984 1.75
6.5625 6.76953 1.75
-6.5625 6.76953 1.75
-1.3125 9.33984 1.75
1.3125 9.33984 1.75
-9.1875 -2.22656 1.75
9.1875 -2.22656 1.75
3.9375 -8.65234 1.75
-3.9375 -8.65234 1.75
-7.875 5.48438 1.75
7.875 5.48438 1.75
-5.25 8.05469 1.75
5.25 8.05469 1.75
-9.1875 2.91406 1.75
9.1875 2.91406 1.75
-2.625 9.33984 1.75
2.625 9.33984 1.75
-9.1875 -3.51172 1.75
9.1875 -3.51172 1.75
6.5625 -7.36719 1.75
-6.5625 -7.36719 1.75
0 -9.9375 1.75
7.875 -6.08203 1.75
-7.875 -6.08203 1.75
1.3125 -9.9375 1.75
-1.3125 -9.9375 1.75
-9.1875 4.19922 1.75
9.1875 4.19922 1.75
-5.25 -8.65234 1.75
5.25 -8.65234 1.75
-3.9375 9.33984 1.75
3.9375 9.33984 1.75
2.625 -9.9375 1.75
-2.625 -9.9375 1.75
-9.1875 -4.79688 1.75
9.1875 -4.79688 1.75
-7.875 6.76953 1.75
7.875 6.76953 1.75
6.5625 8.05469 1.75
-6.5625 8.05469 1.75
10.5 0.34375 1.75
-10.5 0.34375 1.75
-10.5 -0.941406 1.75
10.5 -0.941406 1.75
-9.86865e-17 10.625 1.75
10.5 1.62891 1.75
-10.5 1.62891 1.75
3.9375 -9.9375 1.75
-3.9375 -9.9375 1.75
-9.1875 5.48438 1.75
9.1875 5.48438 1.75
1.3125 10.625 1.75
-1.3125 10.625 1.75
-5.25 9.33984 1.75
5.25 9.33984 1.75
-10.5 -2.22656 1.75
10.5 -2.22656 1.75
-7.875 -7.36719 1.75
7.875 -7.36719 1.75
6.5625 -8.65234 1.75
-6.5625 -8.65234 1.75
10.5 2.91406 1.75
-10.5 2.91406 1.75
2.625 10.625 1.75
-2.625 10.625 1.75
9.1875 -6.08203 1.75
-9.1875 -6.08203 1.75
-10.5 -3.51172 1.75
10.5 -3.51172 1.75
-2.46716e-17 -11.2227 1.75
-5.25 -9.9375 1.75
5.25 -9.9375 1.75
7.875 8.05469 1.75
-7.875 8.05469 1.75
-1.3125 -11.2227 1.75
1.3125 -11.2227 1.75
10.5 4.19922 1.75
-10.5 4.19922 1.75
3.9375 10.625 1.75
-3.9375 10.625 1.75
-9.1875 6.76953 1.75
9.1875 6.76953 1.75
-6.5625 9.33984 1.75
6.5625 9.33984 1.75
-2.625 -11.2227 1.75
2.625 -11.2227 1.75
-10.5 -4.79688 1.75
10.5 -4.79688 1.75
-7.875 -8.65234 1.75
7.875 -8.65234 1.75
-11.7611 0.34375 1.75
-9.1875 -7.36719 1.75
9.1875 -7.36719 1.75
-11.7611 -0.941406 1.75
11.8125 0.34375 1.75
10.5 5.48438 1.75
-10.5 5.48438 1.75
11.8125 -0.941406 1.75
-5.25 10.625 1.75
5.25 10.625 1.75
-11.7611 1.62891 1.75
-3.9375 -11.2227 1.75
3.9375 -11.2227 1.75
-6.5625 -9.9375 1.75
6.5625 -9.9375 1.75
-8.63507e-17 11.9102 1.75
11.8125 1.62891 1.75
-11.7611 -2.22656 1.75
1.3125 11.9102 1.75
-1.3125 11.9102 1.75
11.8125 -2.22656 1.75
-11.7611 2.91406 1.75
-10.5 -6.08203 1.75
10.5 -6.08203 1.75
11.8125 2.91406 1.75
2.625 11.9102 1.75
-2.625 11.9102 1.75
7.875 9.33984 1.75
-7.875 9.33984 1.75
-9.1875 8.05469 1.75
9.1875 8.05469 1.75
-11.7611 -3.51172 1.75
11.8125 -3.51172 1.75
-5.25 -11.2227 1.75
5.25 -11.2227 1.75
-6.5625 10.625 1.75
6.5625 10.625 1.75
-11.7611 4.19922 1.75
10.5 6.76953 1.75
-10.5 6.76953 1.75
-4.93432e-17 -12.5078 1.75
11.8125 4.19922 1.75
3.9375 11.9102 1.75
-3.9375 11.9102 1.75
-1.3125 -12.5078 1.75
1.3125 -12.5078 1.75
9.1875 -8.65234 1.75
-9.1875 -8.65234 1.75
-7.875 -9.9375 1.75
7.875 -9.9375 1.75
-11.7611 -4.79688 1.75
11.8125 -4.79688 1.75
-2.625 -12.5078 1.75
2.625 -12.5078 1.75
-10.5 -7.36719 1.75
10.5 -7.36719 1.75
-11.7611 5.48438 1.75
6.5625 -11.2227 1.75
-6.5625 -11.2227 1.75
-5.25 11.9102 1.75
5.25 11.9102 1.75
11.8125 5.48438 1.75
-13.0222 0.34375 1.75
-13.0222 -0.941406 1.75
-9.1875 9.33984 1.75
9.1875 9.33984 1.75
3.9375 -12.5078 1.75
-3.9375 -12.5078 1.75
-13.0222 1.62891 1.75
13.125 0.34375 1.75
13.125 -0.941406 1.75
-7.40149e-17 13.1953 1.75
-13.0222 -2.22656 1.75
7.875 10.625 1.75
-7.875 10.625 1.75
13.125 1.62891 1.75
10.5 8.05469 1.75
-10.5 8.05469 1.75
-11.7611 -6.08203 1.75
1.3125 13.1953 1.75
-1.3125 13.1953 1.75
11.8125 -6.08203 1.75
13.125 -2.22656 1.75
-13.0222 2.91406 1.75
13.125 2.91406 1.75
2.625 13.1953 1.75
-2.625 13.1953 1.75
-13.0222 -3.51172 1.75
-9.1875 -9.9375 1.75
9.1875 -9.9375 1.75
5.25 -12.5078 1.75
-5.25 -12.5078 1.75
-11.7611 6.76953 1.75
13.125 -3.51172 1.75
-6.5625 11.9102 1.75
6.5625 11.9102 1.75
-10.5 -8.65234 1.75
10.5 -8.65234 1.75
11.8125 6.76953 1.75
-13.0222 4.19922 1.75
-7.875 -11.2227 1.75
7.875 -11.2227 1.75
3.9375 13.1953 1.75
-3.9375 13.1953 1.75
13.125 4.19922 1.75
-7.40149e-17 -13.793 1.75
-1.3125 -13.793 1.75
1.3125 -13.793 1.75
-13.0222 -4.79688 1.75
-11.7611 -7.36719 1.75
11.8125 -7.36719 1.75
13.125 -4.79688 1.75
-2.625 -13.793 1.75
2.625 -13.793 1.75
-9.1875 10.625 1.75
9.1875 10.625 1.75
10.5 9.33984 1.75
-10.5 9.33984 1.75
-6.5625 -12.5078 1.75
6.5625 -12.5078 1.75
-13.0222 5.48438 1.75
-5.25 13.1953 1.75
5.25 13.1953 1.75
13.125 5.48438 1.75
-11.7611 8.05469 1.75
-7.875 11.9102 1.75
7.875 11.9102 1.75
-14.2833 0.34375 1.75
11.8125 8.05469 1.75
-14.2833 -0.941406 1.75
3.9375 -13.793 1.75
-3.9375 -13.793 1.75
-13.0222 -6.08203 1.75
-14.2833 1.62891 1.75
14.4375 0.34375 1.75
-14.2833 -2.22656 1.75
-10.5 -9.9375 1.75
10.5 -9.9375 1.75
13.125 -6.08203 1.75
14.4375 -0.941406 1.75
-6.16791e-17 14.4805 1.75
-9.1875 -11.2227 1.75
9.1875 -11.2227 1.75
14.4375 1.62891 1.75
1.3125 14.4805 1.75
-1.3125 14.4805 1.75
-14.2833 2.91406 1.75
-11.7611 -8.65234 1.75
14.4375 -2.22656 1.75
11.8125 -8.65234 1.75
-13.0222 6.76953 1.75
-14.2833 -3.51172 1.75
2.625 14.4805 1.75
-2.625 14.4805 1.75
14.4375 2.91406 1.75
-6.5625 13.1953 1.75
6.5625 13.1953 1.75
5.25 -13.793 1.75
-5.25 -13.793 1.75
13.125 6.76953 1.75
-7.875 -12.5078 1.75
7.875 -12.5078 1.75
14.4375 -3.51172 1.75
-14.2833 4.19922 1.75
10.5 10.625 1.75
-10.5 10.625 1.75
-13.0222 -7.36719 1.75
3.9375 14.4805 1.75
-3.9375 14.4805 1.75
-11.7611 9.33984 1.75
14.4375 4.19922 1.75
9.1875 11.9102 1.75
-9.1875 11.9102 1.75
13.125 -7.36719 1.75
11.8125 9.33984 1.75
-14.2833 -4.79688 1.75
-9.86865e-17 -15.0781 1.75
1.3125 -15.0781 1.75
-1.3125 -15.0781 1.75
14.4375 -4.79688 1.75
-6.5625 -13.793 1.75
6.5625 -13.793 1.75
-14.2833 5.48438 1.75
2.625 -15.0781 1.75
-2.625 -15.0781 1.75
-13.0222 8.05469 1.75
-7.875 13.1953 1.75
7.875 13.1953 1.75
-10.5 -11.2227 1.75
10.5 -11.2227 1.75
-11.7611 -9.9375 1.75
13.125 8.05469 1.75
5.25 14.4805 1.75
-5.25 14.4805 1.75
11.8125 -9.9375 1.75
14.4375 5.48438 1.75
9.1875 -12.5078 1.75
-9.1875 -12.5078 1.75
-14.2833 -6.08203 1.75
-15.5445 0.34375 1.75
-15.5445 -0.941406 1.75
-3.9375 -15.0781 1.75
3.9375 -15.0781 1.75
-15.5445 1.62891 1.75
-13.0222 -8.65234 1.75
14.4375 -6.08203 1.75
-15.5445 -2.22656 1.75
13.125 -8.65234 1.75
15.75 0.34375 1.75
-4.93432e-17 15.7656 1.75
15.75 -0.941406 1.75
-14.2833 6.76953 1.75
-15.5445 2.91406 1.75
1.3125 15.7656 1.75
-1.3125 15.7656 1.75
15.75 1.62891 1.75
-11.7611 10.625 1.75
10.5 11.9102 1.75
-10.5 11.9102 1.75
7.875 -13.793 1.75
-7.875 -13.793 1.75
11.8125 10.625 1.75
-6.5625 14.4805 1.75
6.5625 14.4805 1.75
[...]
POINT_DATA 43634
FIELD attributes 1
p 1 43634 float
-0.276963 -0.209511 -0.247349 -0.302573 -0.240355 -0.171751 -0.3478 -0.326166 -0.368772 -0.147328
-0.184251 -0.103317 -0.210395 -0.327182 -0.268797 -0.128134 -0.421893 -0.298616 -0.387612 -0.406939
-0.437156 -0.215754 -0.055575 -0.0896079 -0.132319 -0.041904 -0.389935 -0.4486 -0.170667 -0.347876
-0.295321 -0.0822639 -0.499987 -0.265959 -0.401868 -0.167683 0.00962625 -0.491253 -0.50741 -0.246135
-0.00295194 -0.0367908 -0.367103 -0.457368 -0.483868 -0.511376 0.0130555 -0.0833973 -0.364264 -0.127539
-0.20026 0.0696055 -0.316638 -0.0282553 0.0693483 -0.123361 -0.581403 -0.414531 -0.232224 -0.580355
-0.579577 -0.272558 0.0610108 -0.473351 -0.515843 -0.466776 -0.342091 -0.581138 -0.577297 0.0101798
0.135317 -0.157936 0.0624162 -0.0382013 -0.23051 0.140332 -0.0747204 -0.380234 0.123748 -0.0821583
-0.335137 0.0370084 -0.520827 -0.45894 -0.583431 -0.577269 -0.193957 -0.427332 -0.662287 -0.651847
-0.670885 -0.294006 0.133748 -0.190207 0.209106 -0.317258 -0.474997 0.192829 -0.119694 -0.644516
-0.679584 0.0497443 -0.255899 0.217239 0.00060173 0.105121 -0.576026 -0.583035 -0.52325 -0.445841
0.169753 -0.0453912 -0.638573 -0.69294 -0.0116912 -0.395006 0.109711 -0.352941 -0.15317 0.268003
-0.145081 -0.437637 -0.740745 -0.219615 0.289727 -0.723629 -0.759602 -0.313665 0.213558 0.239402
-0.0863268 -0.480377 -0.28627 -0.710933 -0.777612 -0.572693 -0.582444 -0.63057 -0.708273 -0.277671
0.304426 0.084176 0.142638 0.0336737 -0.524405 -0.433231 -0.185261 0.353115 -0.697808 -0.799894
0.208041 -0.0126239 -0.121414 0.316483 -0.406208 0.055361 -0.244458 0.383846 -0.368465 0.18977
-0.445221 -0.0910513 -0.818485 -0.722687 -0.622844 -0.79588 -0.846272 -0.332886 0.305962 0.277754
-0.056051 -0.570639 -0.586507 -0.684208 -0.829313 -0.485373 -0.248286 -0.776308 -0.875165 -0.299109
0.406052 0.405377 -0.154413 0.114722 0.451857 -0.213424 0.174632 0.0620536 -0.526996 -0.415893
-0.0935546 0.35729 -0.756044 -0.906021 0.239061 0.0157837 -0.267031 0.490237 -0.61778 -0.74156
-0.860418 -0.673258 0.133205 -0.415583 -0.380959 0.286377 -0.896169 -0.0326749 -0.45246 0.309305
-0.0282994 -0.569921 -0.592753 -0.930566 -0.867449 -0.738384 -0.946098 -0.34904 0.415412 -0.184937
0.505178 0.447065 -0.126875 -0.208735 -0.490605 -0.970193 -0.840091 0.560587 -0.237302 -0.318352
0.521708 0.141201 -0.068159 0.389698 -0.894097 -0.66415 0.0867866 0.200409 -0.397047 -0.529164
-1.01113 -0.814218 -0.612572 -0.769716 -0.723839 -0.99303 0.0396965 0.26389 -0.288059 0.609685
-0.15835 0.545346 -0.425454 -0.211014 0.614482 -0.392442 0.226727 -0.599231 -0.567763 0.398359
-0.792978 -1.05959 -0.45968 -0.00382314 0.334831 -0.102553 0.477492 -0.97195 0.0364549 -0.361891
-1.01177 -0.935702 0.538289 -0.494168 -0.259159 0.683929 -0.166731 -1.05992 -0.901378 -1.04309
-0.709493 -0.653882 -0.939317 -0.333293 0.651902 -0.0448481 0.414164 -0.77345 -1.1189 -0.528852
-0.803794 -0.605949 0.161588 -0.382345 -1.11218 -0.871621 0.107179 0.219067 0.65365 -0.187016
-0.134058 0.574052 -0.305839 0.746524 0.0587342 0.282471 -0.233727 0.738731 -0.564258 0.500015
-0.0811678 -0.84592 -1.16954 -0.611944 -0.434286 -0.403437 -0.694781 -1.10216 0.353299 0.0156426
-0.465226 0.336719 0.525575 -1.04301 -0.373955 -1.18583 -0.753885 0.120406 -0.998137 -0.643867
-0.2795 -1.08894 -0.998944 0.824423 0.678813 -0.496228 -0.118147 -1.14268 -0.959841 -0.346368
-0.164329 0.68116 0.430645 -0.0249431 -0.600236 0.80445 -0.820584 -1.23778 -0.211375 0.775645
-0.844374 -0.528248 -0.11292 0.595668 -1.20483 -0.926548 -0.371302 0.176797 0.123927 0.233303
-0.320778 -0.255306 0.877526 0.90596 0.0747447 0.297078 -0.73616 -1.25934 -1.17974 -0.682449
-0.0627637 0.515034 -0.561917 -0.895249 -1.27275 -0.635097 -0.636266 -0.797138 -1.31936 -0.440429
-1.06721 -0.412485 0.366467 0.0310908 -0.297013 -0.469124 0.459226 -0.385679 -0.190828 0.800699
0.983054 0.669181 -1.10945 -0.143301 0.700931 0.215313 -1.16282 -1.05904 -0.498572 -0.233266
0.841479 0.910892 -0.596168 -0.359744 -1.22116 -1.01675 -0.0635238 -0.864855 -1.34852 0.441293
-0.00846465 -0.89808 -0.0955976 0.608327 0.980335 -0.529064 -1.35082 -0.721503 -0.27505 -1.28983
-0.97872 -0.672211 -0.364694 -1.40955 -0.777225 1.03172 -1.27476 -0.334944 0.187697 0.244191
0.136611 1.08461 -0.0463227 0.522958 -0.560474 0.307241 0.0882585 -0.629492 -0.83897 -1.43973
-0.171447 0.816851 -0.213343 -1.15213 -1.36844 -0.941727 0.932507 -0.674213 0.708981 -0.125581
-0.312132 -0.445633 -0.419657 0.0437195 0.373758 -0.473092 -0.254153 1.15787 -0.395461 1.06178
0.601311 -1.17093 0.840756 -0.591578 -0.501252 -1.23156 -1.11665 0.323381 -0.707531 -1.51452
-0.759252 0.611892 -0.0805506 -1.46508 -0.908028 -1.45291 1.03546 -0.371971 -0.973934 0.00451274
0.445616 -1.29567 -1.07093 -0.000816804 -0.661785 -0.291926 -0.816366 -1.54526 -0.529581 -1.39103
1.1836 1.203 -1.36792 -1.02718 -0.195434 -0.348698 0.943058 -0.359732 -0.154166 0.818813
0.195435 -0.234409 -0.62152 0.251583 0.1453 -0.0322268 0.523976 1.07877 1.28685 -0.879884
-1.54978 -0.55794 -1.26025 0.0989009 0.311985 0.707457 -0.110894 -0.986017 -1.45403 -0.730916
-0.326523 -0.273098 -0.741311 -1.64172 -0.69358 -0.451758 0.375363 0.054436 1.22972 -0.426839
-1.66482 -0.794282 1.35728 -0.477206 -1.60508 -0.403488 -0.586002 -0.0670373 0.609162 -1.22775
-0.502601 -0.651111 0.767654 -0.950362 -1.54822 1.04401 -1.17105 -1.29347 0.443196 -1.08192
-1.66481 -0.853423 -0.381622 -0.179691 0.0147022 0.444947 -0.216527 -1.53265 -0.306785 0.938101
1.25946 -1.36458 -1.12054 1.0811 0.0629977 -0.528181 -0.139 0.811934 1.39945 -0.254677
1.41297 -0.360701 -1.44021 -1.07162 -0.613789 1.23863 -0.364513 -0.918985 -1.65046 -0.0211051
0.520706 -0.724969 0.199939 0.701047 -0.0984716 -0.773383 -0.554491 -1.40567 0.2544 0.1501
-1.8021 -1.79547 1.51594 -0.289033 -0.681184 -1.02828 -1.52948 0.31153 0.105428 -0.340475
-1.79787 -0.827569 -0.813176 -1.77522 1.4178 -0.201423 -0.457313 0.372963 0.0624697 -0.433875
1.58441 -0.581292 -0.165121 1.06796 -0.642039 -0.480301 0.602409 -0.0552671 0.9253 -0.236982
-0.411135 -1.76869 -0.888227 -1.63166 -0.990466 1.22968 -0.503044 -1.7089 -1.27953 -0.321442
-1.23319 -0.126122 0.800774 0.970012 -1.21997 -1.34731 1.28811 -0.389979 0.0223418 0.440732
0.58363 -0.272341 1.52071 -1.42433 -1.16419 -0.755693 -0.526649 1.61797 -0.711147 0.129232
-1.96379 1.41253 -0.607931 -0.80498 -1.94649 -0.370604 1.67744 -1.98225 -1.50518 -1.11221
-0.0874898 0.689375 -1.74182 -0.954958 -0.670681 0.513061 -0.0134795 -0.386743 -1.60347 -0.551795
-0.303752 0.201784 -1.90965 -0.85993 -0.188174 0.253552 0.152626 -0.221601 1.77968 -1.97737
1.04817 -0.352487 -1.06749 -1.59572 1.20742 0.308375 0.108656 -0.151745 1.62055 0.907617
-0.256231 -0.936629 -0.634322 -0.577583 -0.0463791 0.589805 -0.460766 0.368352 0.0677269 1.39103
-0.439675 1.84074 -1.86223 -0.920881 -0.482049 -0.115487 0.782671 -0.739814 -1.93794 -0.418979
-0.785813 -1.7011 -1.0263 -0.335158 -0.287652 -2.1156 -0.503867 -2.15657 -1.44705 -0.698334
-1.32717 -0.398855 0.0283257 0.433009 -1.26331 -1.39604 -0.836058 1.21102 -2.06914 1.57228
1.59977 -2.20492 0.745738 -0.526665 -0.602496 -1.47574 -1.2036 1.85687 1.81839 -0.208687
-0.660253 -0.0782078 0.670922 0.188249 -0.379863 -0.175924 -0.241384 -1.81875 -0.987038 1.17932
1.02198 1.97892 -1.15051 -1.5626 -2.00434 -0.891288 -0.318192 -0.00795459 0.50073 -1.86757
-0.550278 -2.22526 1.3596 -0.452095 -0.140446 0.882089 -0.272998 0.200545 0.249645 0.153266
-0.36249 2.07697 1.84041 -1.10351 -1.65634 -0.626261 -0.767039 0.302919 0.109587 -0.723988
1.56717 -1.13094 -2.31078 -0.81442 -0.573631 -0.0401136 0.572865 -1.9444 -0.951374 -2.24682
-0.107066 0.758121 -2.38924 -0.463369 -0.685008 0.360381 0.0700006 2.12141 -0.444107 -2.22616
-0.302141 -0.483819 -0.346717 -1.05828 -1.76158 -0.425791 -0.865457 -2.16873 -0.197569 -0.22814
-0.505169 -2.46287 -1.75002 1.14269 -0.407536 0.032419 0.420836 1.80558 -1.36865 -0.164697
1.32014 -0.595873 -1.44014 -1.30047 -0.259645 -0.649484 0.987725 1.51323 -0.526814 2.11447
1.91668 -0.0706962 0.649888 0.955057 -1.51983 -1.23947 2.17278 -2.08599 -0.920504 -0.389302
-1.01684 -1.88196 1.5234 -0.331509 0.248372 -0.13209 -2.52579 0.851223 -0.74848 -0.00362877
0.484667 -0.287733 -2.22623 -0.792715 -1.60982 -1.18558 2.33332 -0.548116 -0.708489 -2.44594
-2.54071 -0.58987 -0.840714 -0.617523 -0.372025 0.196521 2.07968 -2.35347 1.75836 2.4151
0.151863 0.243712 -1.13514 -1.70851 -2.65371 -0.672398 -0.0999103 0.732377 -0.216808 0.109142
0.295232 -2.01375 -0.980423 -0.568682 -0.0359362 0.553546 -1.44101 -0.187409 -0.31649 -0.247075
-0.891857 -2.59078 1.27044 -2.2484 1.09873 0.0699719 0.349311 2.43097 -0.356715 -2.75865
-1.08697 -1.81477 -0.155504 1.468 -0.275354 0.949675 2.02786 -0.639476 -2.16654 -0.467252
-0.588844 -0.448517 0.0341808 0.40623 -0.772548 -0.486853 -0.731806 -1.40316 -0.431404 -0.0654795
0.626668 1.69522 -1.47852 -1.33304 -0.817025 -2.15868 -0.94728 2.3982 -0.506315 -2.66813
-0.12567 1.89021 0.819199 2.32908 -0.342919 -1.04494 -1.93379 -2.55858 -1.55891 -1.27227
-0.302179 -0.41526 -2.88263 1.23432 -0.694969 -2.80352 2.58721 -0.000503195 0.467299 -0.525344
-0.86459 -2.68763 0.309118 -1.64846 -1.21612 -2.43408 -0.20721 -0.235506 2.734 -0.399173
-0.609502 -2.93517 1.95762 -0.661667 -0.853147 -0.178315 1.2162 2.34157 -0.264134 -0.54422
1.40437 -0.0939212 0.703309 0.189819 1.05265 -1.16234 -1.75034 2.78505 0.147513 0.235645
-2.06736 -1.00715 -0.329698 -0.91578 -0.0330603 0.532506 -2.3185 -0.383028 0.106853 0.284879
1.62171 -1.94759 -0.148434 -3.03267 -3.09849 -0.289577 0.910048 -0.755086 -0.796165 -0.563219
2.76618 0.0680886 0.335903 -1.1133 -1.86037 -0.717479 -0.63081 -2.77627 -2.91733 2.26246
-0.84005 -0.367825 -2.7522 1.87156 -2.6422 -0.0624298 0.60002 0.033156 0.39025 -0.120189
-2.21694 -0.971096 -3.07316 -0.683261 0.782757 -0.31655 -0.225401 -1.43108 2.70524 -0.582566
-1.50867 -1.36162 -0.199115 -0.25338 -3.27277 -1.07085 -1.97888 -0.887306 -0.471637 -2.49914
-0.453736 -1.59168 -1.30007 2.35084 1.33949 2.82178 -0.489231 1.16104 1.57829 -0.436839
-3.24081 0.00032878 0.448185 -0.170451 -3.25314 -0.354143 3.06966 -0.278671 -0.506072 1.54487
-0.651773 0.341444 -1.24077 -1.68037 1.00461 2.16293 -0.421387 3.18179 -0.0895538 0.670253
2.61667 -0.777389 -0.523054 -0.739232 -0.602307 -0.937885 -1.33907 -2.37828 -1.03055 -2.10993
-0.818391 1.78161 -0.143211 -1.7815 -1.18561 -0.407007 0.181602 -0.304 0.86596 3.19102
0.14074 0.226051 -0.0315254 0.508576 -3.00721 -3.43841 -0.703907 -2.85879 -3.51685 -3.17328
0.102538 0.272624 -0.540981 -0.341863 -2.86803 -0.862192 -0.393003 -2.70213 -0.217365 -0.243123
-1.13696 -1.89416 0.0651219 0.320957 3.13067 -3.35327 2.50152 -3.33893 2.05541 -0.671318
-0.191778 -0.115356 -0.621837 -0.268982 0.74395 -0.559356 1.27294 -2.25982 -0.992218 -0.0611648
0.570732 -3.54786 1.46696 1.10301 -0.909109 0.0304019 0.372532 -2.55426 -0.379181 -3.64633
3.02972 -0.164426 -1.45523 -1.09298 -2.01497 -0.330398 -0.29261 -1.53236 -1.38628 1.69011
-3.52939 -0.75925 0.952723 -0.797536 -3.43313 -1.61757 -1.32228 -0.577307 2.94262 -0.7233
-0.00115405 0.42661 3.41733 -3.85269 2.37371 2.04174 -0.838838 3.62326 -3.80688 -3.07681
-3.24057 -1.70744 -1.26117 -0.474499 -0.0875066 0.636564 -0.640374 -0.458819 0.0711977 -0.95865
1.94817 -0.365652 -2.42414 -0.139067 -0.489761 2.89657 -2.91396 -0.68967 3.67086 -0.443018
-1.04555 0.821319 -4.03471 -1.05007 -2.14388 -3.40855 -0.234478 -0.505187 -2.21332 -3.71419
-1.80637 -1.20672 -0.210848 -0.882727 -0.259874 -0.031341 0.48263 -0.42766 0.172422 -0.594758
-0.319331 0.214783 0.132443 3.62333 -3.54925 -3.946 -2.74672 -0.521646 1.38631 1.20342
0.258353 0.095992 -0.185282 -3.56569 -0.282966 -4.16938 -0.413486 2.24543 -0.353125 1.59557
-1.15773 -1.91763 1.0423 2.74415 -0.112049 0.304059 0.0607828 3.50878 0.706155 -4.38356
-0.538949 -2.28941 -1.01102 -0.657745 -0.929293 -0.777264 -0.0588523 -0.0607169 0.541162 -0.741441
-2.59986 -0.400702 -0.16025 -0.815777 -1.17607 -4.47188 1.83738 -0.612003 0.0266969 0.352744
0.901073 -3.92154 -3.73401 -0.707451 -2.82586 -3.28483 -1.11133 -2.04033 -0.555763 -3.12397
3.35387 -4.45847 -0.308357 -3.44892 -1.47504 -4.43432 -0.857102 -1.55076 -1.40485 -0.342186
-0.388819 2.58944 -0.227813 -0.251556 -5.08972 -2.94714 -1.63542 -1.33897 -0.00449555 0.403406
-4.35807 2.11593 -0.135786 3.69715 -0.977436 -3.58018 -0.0871359 0.603346 4.09961 -2.45214
-0.205114 0.777622 -0.274892 2.76955 -4.98563 -1.72694 -1.27845 4.21815 -0.571374 1.30554
-0.900844 3.17396 -4.27918 -1.06712 -2.17008 0.285962 -0.674812 -0.629135 1.50068 1.13378
-3.87338 -4.82813 -2.78381 4.18493 -1.22247 -0.180151 -0.376812 -0.0330566 0.456115 -1.22479
-1.82559 -3.6286 -0.475714 -3.70558 -0.46201 1.72471 -4.20152 -0.489898 -0.758594 0.162012
-4.67636 0.982751 -0.794373 0.201486 0.123458 -0.448227 4.06511 -5.49132 -0.332603 2.43516
-0.724968 -0.298255 -0.505018 -0.586688 0.242472 0.0878732 -0.110585 0.667485 -5.55576 -0.433971
-0.832669 -4.51824 2.98763 -0.946537 -1.17409 -1.93347 -4.12397 -3.31205 -0.157552 -1.02841
-2.3116 -2.62759 -3.46112 -0.520941 1.98314 0.286193 0.0547076 3.88343 -5.03425 -0.0611551
0.511247 0.849785 -0.364644 -3.14701 -0.419986 -0.645943 -4.4058 -3.58325 -0.244364 -3.82296
0.539633 -0.873457 -4.04482 -4.71321 -0.222691 -0.267843 -0.692068 -0.782917 -0.53667 0.022269
0.33231 -1.12598 -2.05419 -2.9702 -4.13483 -4.319 -0.602822 3.67038 -0.407407 -4.51579
-0.199836 1.40922 -3.65828 1.22692 -0.323203 -1.48971 -6.3754 2.80199 2.27877 -1.41784
-1.56536 -3.98314 -0.133318 -0.993992 0.732036 1.61634 -2.46817 -0.551319 -0.00869268 0.379815
-0.0877134 0.568646 1.06593 -1.64785 -1.35236 -4.35107 -5.60115 -4.22488 -0.916192 -0.353361
-0.289989 -0.775462 -2.80783 4.50481 -0.741832 4.80859 -0.176984 -0.396551 -4.75803 3.41721
-1.29333 -1.73894 -1.08221 -2.18476 -0.811044 -3.93818 3.44618 4.81626 -4.23786 2.84418
1.85328 -0.662471 0.923622 -3.7588 -4.1375 1.35663 -4.31816 -0.619621 -0.565284 -0.0365379
0.429074 4.68797 -0.446476 -3.45427 -1.8389 -1.23881 -3.32127 -0.848727 -4.15278 -3.56594
-3.81348 2.61578 -0.708971 -4.11844 -3.89941 0.149552 -0.110909 -0.386281 0.186493 0.113401
-4.06526 -0.238725 -0.261094 0.626711 4.48576 -0.961113 -6.07068 -0.155401 -3.15379 -0.313751
-2.63881 2.1245 -0.343898 0.225951 0.0787288 3.2222 0.797579 -3.61569 -2.32541 -1.04359
-4.0765 -0.218212 -3.98581 -0.47711 -5.49811 -0.46391 -1.18623 -1.94549 -0.491086 -0.888313
-0.451609 -0.579836 -0.0629527 0.480151 0.26774 0.0467203 -3.86088 1.31978 4.23527 -4.01805
-4.76166 -0.505249 3.70573 -2.98444 -0.283713 1.51241 -3.88949 1.14943 -0.439337 3.11135
-0.195757 -4.01183 -0.635895 1.78818 -0.678488 -4.30199 -0.375529 -0.519291 -3.68754 0.0163509
0.310796 -0.757781 -1.11023 -1.13833 -2.06236 1.73047 0.998809 -0.791591 -3.81275 -0.426752
2.43311 -3.97474 -0.132349 -3.82981 -4.63648 3.96828 -4.06504 2.99876 0.685763 -3.99424
-1.00751 -0.929988 -2.47626 -0.826866 -1.49798 -0.533096 -0.335731 -5.94444 -0.595486 -0.0887873
0.532649 -1.42634 -1.57459 -0.175217 -2.81587 -0.0135318 0.35498 -3.75351 -0.724409 -0.305072
-3.91473 -3.43919 -1.36273 -1.65605 1.97763 -0.41453 -3.52566 -5.31926 0.865181 -3.9386
-3.31253 -3.9719 -1.09548 -2.1907 -3.79788 -0.254862 -0.364542 -0.863621 -4.71523 5.20582
-3.57534 -1.304 -1.74458 3.6986 5.43482 -0.54669 -3.80038 -0.234511 4.1725 -3.72239
5.34865 3.32816 -0.650997 -0.041268 0.400923 -4.31705 1.93703 -3.14992 -0.403569 2.78147
-0.21424 5.13111 -0.278157 -1.86056 -1.24785 -1.84401 -3.90575 -3.91359 -3.70508 -0.153807
-0.693377 -0.973501 -0.112246 -0.611223 -3.62611 2.25941 0.586086 1.41035 1.23155 -3.77313
-2.63892 -3.75396 -4.07686 -5.85418 0.746796 0.135636 -0.560414 -0.902403 0.171128 0.10201
1.61218 -0.32789 4.85373 1.07377 -6.23943 -2.33122 -1.05582 3.43246 -3.63514 0.209077
0.0691014 -0.772207 -3.91862 -2.98837 -0.193298 -1.95147 -1.1951 -3.87505 -0.35465 -0.393729
-5.2963 -0.0666395 0.448364 -3.87991 -3.75907 -0.806026 -0.298182 0.24792 0.0377238 1.83913
-3.74061 0.933717 4.54149 -4.65437 -3.78473 -3.60055 -0.738293 4.43802 -0.479102 -0.574613
-0.465968 3.52942 -0.840759 -0.664853 -0.49248 -3.48037 2.57702 -0.133135 -4.27747 -3.41758
-0.454228 -3.84648 2.35084 -2.06663 -1.14873 -0.625667 0.00880888 0.287767 -3.69726 0.641271
-0.942713 -3.52409 -3.66006 -3.85679 -0.504991 -0.17416 -2.1245 -1.01833 3.17353 -0.249833
-2.4804 -3.62521 -2.80972 -0.384336 -0.443445 4.22414 -4.0312 -3.28893 2.09534 -6.24258
-0.0909796 0.496962 -3.71371 0.809046 -0.706766 -0.231311 -0.517026 -1.50158 -3.5783 -5.8856
-0.877085 -1.43208 -1.5779 -3.5556 0.329459 -0.0191761 -0.272435 -0.346493 -0.319908 -3.65946
-0.432642 -3.8791 -3.82627 -1.36949 -1.65995 -3.64734 -0.58897 -5.2468 -2.19069 -1.10582
1.31219 -3.83314 -3.14119 -0.529564 -0.211006 1.49839 1.14774 3.91004 -3.47048 -3.76053
-1.30985 -1.74652 5.7616 5.92588 -0.42143 -3.68443 4.79619 -0.153366 -0.374929 -0.292873
-3.63733 -0.0463885 0.372844 2.93177 5.7725 -0.78495 2.38477 3.92874 -0.638845 -0.984561
1.70712 1.00154 -3.60069 -3.81165 0.697663 -0.114228 -2.6372 0.546747 2.95789 -0.915051
-0.677799 -3.61157 -0.542874 -1.25348 -1.84278 -3.46161 5.48599 -1.21668 -3.80269 -0.818244
-0.75105 -0.192392 -2.97955 -5.92303 -2.32831 -1.06465 -0.410448 0.121813 -0.602599 0.156279
0.0898255 3.60744 1.94128 -3.48427 -3.44154 -3.62391 -3.5614 0.870795 -0.339662 5.14627
-6.07464 -3.47194 -3.66542 0.191893 0.0591508 -1.94954 -1.20235 -3.79878 -0.0716043 0.416974
-3.54592 -3.38181 -0.852631 -0.556503 -0.312463 -5.13893 -0.719463 -3.53469 -0.246595 -0.365694
0.227749 0.0287635 -3.7721 -3.34994 4.78207 -0.13536 2.7069 -0.400427 -0.266839 -3.25711
-0.954189 -3.54367 -0.173461 0.597782 -3.61676 -0.22837 -3.54693 4.92146 -0.651442 -2.80043
-1.15684 -2.06484 4.18559 2.20266 -4.097 -1.02705 0.000444829 0.265559 0.753604 -3.63709
-3.78296 -2.47805 3.32101 3.03805 1.39113 1.22055 -3.29678 -0.888337 -0.569783 -0.615118
-0.0947063 0.461959 -0.660356 -0.288303 4.42218 -0.690343 -0.480969 1.58259 1.06816 -0.46901
-3.74227 -5.52117 -0.492553 -3.53305 -0.209187 -3.12899 -3.50172 -0.45745 -3.61669 -1.50143
-0.0259011 0.305431 -0.391628 -1.57527 -1.43385 -0.333085 -6.30093 -0.503699 -0.796394 -3.36592
-3.63674 -2.18623 -1.11274 -0.446635 -0.357154 -1.65702 -1.37095 -3.76149 1.79627 -0.763231
0.931398 -5.15438 -3.61661 -0.515237 -0.154758 4.07275 -0.829123 2.49437 -3.49931 -0.30639
-1.74334 -1.31127 -0.58225 -3.52393 0.648741 -0.994157 -0.925505 -0.436494 3.05729 -3.42715
0.110159 -2.63472 -3.71103 -3.4143 -0.116824 -3.39777 -0.0517564 0.345985 -0.192229 6.0576
0.0789297 0.143261 0.50803 6.21103 -3.6344 -0.732039 4.98112 -2.96574 -3.49845 -0.527568
6.03361 4.14951 -0.66394 0.04989 0.1765 -3.40686 -0.627379 -1.25665 -1.83662 2.03323
-3.33289 2.82275 0.808696 -0.383644 -3.73024 -0.426724 -0.244463 -2.31944 -1.07108 5.70844
-0.862692 -1.13553 -3.50558 0.021006 0.21065 -3.59402 -0.262683 -3.33441 -3.50813 -5.81491
3.74313 -0.540083 -0.702996 -0.0768703 0.386707 -3.64794 -3.68141 5.32262 -6.28473 -1.2071
-1.93955 -3.23265 -0.349964 -0.22586 1.29052 -0.593955 -0.326313 -0.00695721 0.247324 -0.283629
1.46521 1.13297 -0.417263 -0.173728 -5.05431 -0.963333 -0.138019 2.81125 -3.12425 -3.50386
-3.34728 -3.69695 0.554562 -2.7941 2.29521 0.699119 -3.52121 4.92657 -0.897503 1.66046
0.990987 -0.552116 -0.375819 -1.03459 -3.58707 -2.46784 -0.0326574 0.285053 -2.05314 -1.16105
-0.208825 4.79513 -3.62341 -0.807421 3.43469 -0.63983 -4.01489 -3.11469 -0.302022 -0.774816
3.9673 -3.65718 -0.0996625 0.428572 -0.408006 2.50859 -0.676317 -3.39338 -3.47657 -3.09283
4.54117 -1.30657 1.87597 0.863394 -0.744206 -3.38114 -3.66506 -0.605504 -3.58971 -3.45882
-5.71311 -0.839227 -0.0570297 0.322612 -2.90831 0.0989086 -0.563623 -3.34567 -1.4983 0.0683717
0.130109 -1.56946 -1.43127 -0.343982 -1.11622 -2.17432 -3.52246 -6.18061 -0.157459 -3.58134
-3.58534 0.0401748 0.161512 -0.933336 2.58124 -1.64863 -1.36841 0.600821 -0.481542 -3.42665
-0.192429 -0.471404 -3.1453 -1.00192 -5.02304 -0.491702 -0.399054 -0.319789 -3.44253 -0.367768
-3.64727 -3.28763 -2.62716 -0.715249 -0.46104 -0.242548 -2.95469 4.17036 -0.260404 3.15121
-0.120435 -2.85252 0.0129582 0.194742 0.471391 -1.73436 -1.31049 -0.502434 2.11332 0.749627