# Residuals   
# Time        	p             	Ux            	Uy            	Uz            	k             	epsilon       
3             	1.000000e+00	1.000000e+00	1.000000e+00	1.000000e+00	1.000000e+00	5.449781e-02
4             	1.750695e-01	5.390571e-01	1.993613e-01	4.551884e-01	5.086926e-02	3.405928e-03
5             	9.527233e-02	4.123181e-01	2.329094e-03	4.736575e-02	4.843019e-03	4.176792e-04
6             	8.908517e-02	2.416065e-01	5.153190e-04	7.377180e-03	4.677275e-04	4.988393e-05
7             	1.213629e-01	3.114219e-01	1.850990e-04	9.610994e-03	4.784599e-05	6.641998e-06
8             	3.335630e-01	6.933405e-02	1.064646e-04	7.670978e-03	8.677170e-06	2.349248e-06
9             	1.372280e-01	1.923390e-02	1.493332e-04	1.137457e-03	5.626150e-06	2.542958e-06
10            	1.535270e-01	2.702740e-02	1.785719e-04	9.372564e-04	5.931502e-06	3.327598e-06
11            	5.982828e-01	2.944500e-02	7.761484e-05	4.350057e-03	3.616362e-06	2.271012e-06
12            	1.494342e-01	1.331187e-02	2.089595e-04	1.891884e-03	3.054081e-06	1.913449e-06
13            	1.337532e-01	1.806189e-02	2.328041e-04	2.470747e-03	4.562978e-06	2.946481e-06
14            	1.842870e-01	4.938580e-02	1.319231e-04	8.236377e-03	5.299459e-06	3.459765e-06
15            	3.086430e-01	7.784169e-02	9.181814e-05	1.514472e-03	4.104683e-06	2.822522e-06
16            	1.797966e-01	5.465639e-02	1.914187e-04	1.437963e-03	5.469302e-06	4.115381e-06
17            	1.804557e-01	2.779608e-02	1.886842e-04	2.691737e-03	5.371470e-06	4.163733e-06
18            	6.162998e-01	2.708499e-02	1.054688e-04	7.323257e-03	4.595555e-06	3.514753e-06
19            	1.987695e-01	3.321997e-02	2.028261e-04	1.373964e-02	5.362855e-06	4.107388e-06
20            	1.671730e-01	5.757397e-02	2.628476e-04	6.425127e-03	5.165009e-06	3.900531e-06
21            	2.046740e-01	6.645300e-02	1.980038e-04	3.579896e-03	5.381644e-06	4.067035e-06
22            	5.487894e-01	4.870287e-02	1.496160e-04	2.680675e-03	6.565829e-06	5.360386e-06
23            	2.488070e-01	4.692421e-02	2.198558e-04	3.663871e-03	7.098290e-06	5.945891e-06
24            	2.247819e-01	3.627326e-02	2.389112e-04	4.369367e-03	8.315074e-06	7.018573e-06
25            	3.499544e-01	4.165273e-02	1.902627e-04	5.508206e-03	4.929562e-06	4.163353e-06
26            	2.714376e-01	4.927593e-02	1.984613e-04	7.511746e-03	6.856681e-06	5.751325e-06
27            	1.873479e-01	5.264571e-02	2.664072e-04	6.392577e-03	4.519658e-06	3.794846e-06
28            	1.689040e-01	4.278584e-02	2.539658e-04	4.543839e-03	3.446695e-06	2.879239e-06
29            	2.035719e-01	3.927815e-02	1.845878e-04	3.840340e-03	5.709664e-06	4.655946e-06
30            	3.735871e-01	3.162570e-02	1.616243e-04	3.291490e-03	6.050915e-06	4.810175e-06
31            	3.689418e-01	2.546796e-02	1.726791e-04	2.799243e-03	6.599154e-06	5.139690e-06
32            	3.362662e-01	2.600471e-02	1.642008e-04	2.956064e-03	6.607210e-06	5.061297e-06
33            	4.125331e-01	2.790188e-02	1.413632e-04	3.260051e-03	5.397808e-06	4.078319e-06
34            	2.103390e-01	2.816261e-02	1.354834e-04	3.338795e-03	5.750858e-06	4.307660e-06
35            	1.558843e-01	2.631846e-02	1.363089e-04	3.124732e-03	5.950890e-06	4.426667e-06
36            	1.404430e-01	2.318347e-02	1.266407e-04	2.812186e-03	5.180222e-06	3.832594e-06
37            	1.353379e-01	1.990381e-02	1.082107e-04	2.372421e-03	5.210276e-06	3.837478e-06
38            	1.467970e-01	1.695569e-02	9.902558e-05	1.970678e-03	4.734831e-06	3.474052e-06
39            	1.681018e-01	1.494194e-02	9.718554e-05	1.734529e-03	5.602611e-06	4.126322e-06
40            	1.727904e-01	1.448986e-02	9.562380e-05	1.677367e-03	6.402650e-06	4.693845e-06
41            	1.467746e-01	1.473649e-02	9.361362e-05	1.733845e-03	5.283539e-06	3.868798e-06
42            	1.125464e-01	1.462913e-02	9.102571e-05	1.769947e-03	4.786584e-06	3.517897e-06
43            	8.961547e-02	1.385858e-02	8.823336e-05	1.745678e-03	4.830490e-06	3.569053e-06
44            	7.668548e-02	1.260397e-02	8.445568e-05	1.657475e-03	5.656023e-06	4.199103e-06
45            	6.890740e-02	1.119964e-02	8.055956e-05	1.539043e-03	5.474693e-06	4.083474e-06
46            	6.510405e-02	9.914263e-03	7.728998e-05	1.410317e-03	4.337909e-06	3.249361e-06
47            	6.488946e-02	9.004042e-03	7.538328e-05	1.336067e-03	4.127336e-06	3.102449e-06
48            	6.396567e-02	8.579069e-03	7.410585e-05	1.320233e-03	4.801059e-06	3.617665e-06
49            	6.068326e-02	8.553929e-03	7.291836e-05	1.320785e-03	5.426357e-06	4.096957e-06
50            	5.482478e-02	8.533689e-03	7.149398e-05	1.322468e-03	4.524744e-06	3.422510e-06
51            	4.931415e-02	8.291376e-03	6.975066e-05	1.308161e-03	3.827005e-06	2.899138e-06
52            	4.429146e-02	7.846001e-03	6.761375e-05	1.279975e-03	4.020844e-06	3.050642e-06
53            	4.061934e-02	7.284809e-03	6.547387e-05	1.243233e-03	4.685088e-06	3.560455e-06
54            	3.740713e-02	6.740229e-03	6.338051e-05	1.209175e-03	4.787690e-06	3.643885e-06
55            	3.533414e-02	6.262730e-03	6.171464e-05	1.184748e-03	3.676929e-06	2.802049e-06
56            	3.411501e-02	5.905168e-03	6.026971e-05	1.176939e-03	3.380691e-06	2.578442e-06
57            	3.342285e-02	5.712201e-03	5.905130e-05	1.178508e-03	3.858361e-06	2.944247e-06
58            	3.233100e-02	5.571288e-03	5.767375e-05	1.176082e-03	4.403789e-06	3.361631e-06
59            	3.080375e-02	5.395165e-03	5.635271e-05	1.170249e-03	4.005961e-06	3.059027e-06
60            	2.900944e-02	5.173259e-03	5.486125e-05	1.161287e-03	3.053078e-06	2.332308e-06
61            	2.748965e-02	4.940125e-03	5.344960e-05	1.150536e-03	3.207292e-06	2.450983e-06
62            	2.606157e-02	4.721796e-03	5.198196e-05	1.141315e-03	3.742363e-06	2.860670e-06
63            	2.550792e-02	4.526431e-03	5.069892e-05	1.132087e-03	3.984831e-06	3.046696e-06
64            	2.497221e-02	4.364266e-03	4.942898e-05	1.125535e-03	3.253166e-06	2.487877e-06
65            	2.473187e-02	4.234292e-03	4.835009e-05	1.119457e-03	2.705230e-06	2.068852e-06
66            	2.462089e-02	4.123383e-03	4.721061e-05	1.115467e-03	3.085931e-06	2.359850e-06
67            	2.413241e-02	4.014133e-03	4.617316e-05	1.110288e-03	3.543926e-06	2.709644e-06
68            	2.352812e-02	3.887649e-03	4.505744e-05	1.107364e-03	3.529980e-06	2.699049e-06
69            	2.342616e-02	3.754906e-03	4.404842e-05	1.103446e-03	2.566768e-06	1.962745e-06
70            	2.276700e-02	3.617773e-03	4.297558e-05	1.100198e-03	2.576298e-06	1.970067e-06
71            	2.253463e-02	3.496935e-03	4.203276e-05	1.095808e-03	2.962878e-06	2.258437e-06
72            	2.220872e-02	3.388060e-03	4.103420e-05	1.092229e-03	3.260241e-06	2.499606e-06
73            	2.231635e-02	3.295834e-03	4.017149e-05	1.087982e-03	2.891869e-06	2.231691e-06
74            	2.194323e-02	3.207010e-03	3.923527e-05	1.084376e-03	2.211366e-06	1.715827e-06
75            	2.215298e-02	3.123665e-03	3.843794e-05	1.080312e-03	2.503905e-06	1.950476e-06
76            	2.190542e-02	3.038407e-03	3.754764e-05	1.078230e-03	2.926214e-06	2.288010e-06
77            	2.188395e-02	2.952500e-03	3.679616e-05	1.074760e-03	3.046807e-06	2.391176e-06
78            	2.176000e-02	2.870177e-03	3.595239e-05	1.073673e-03	2.335499e-06	1.839576e-06
79            	2.156022e-02	2.789060e-03	3.523513e-05	1.070075e-03	2.098608e-06	1.658151e-06
80            	2.145852e-02	2.715766e-03	3.444462e-05	1.067875e-03	2.409401e-06	1.909294e-06
81            	2.117573e-02	2.640211e-03	3.376563e-05	1.064126e-03	2.735920e-06	2.173764e-06
82            	2.116268e-02	2.575791e-03	3.304150e-05	1.060873e-03	2.598365e-06	2.069736e-06
83            	2.107575e-02	2.504239e-03	3.240940e-05	1.057538e-03	1.855136e-06	1.480977e-06
84            	2.108487e-02	2.446719e-03	3.173346e-05	1.054324e-03	2.018583e-06	1.614768e-06
85            	2.102571e-02	2.376702e-03	3.112250e-05	1.051568e-03	2.339989e-06	1.874919e-06
86            	2.105444e-02	2.320703e-03	3.046704e-05	1.048674e-03	2.508981e-06	2.013473e-06
87            	2.090686e-02	2.255255e-03	2.986456e-05	1.045866e-03	2.066739e-06	1.660819e-06
88            	2.075733e-02	2.201434e-03	2.924369e-05	1.043045e-03	1.682656e-06	1.353791e-06
89            	2.064495e-02	2.141599e-03	2.867568e-05	1.040009e-03	1.933156e-06	1.556391e-06
90            	2.056932e-02	2.089604e-03	2.810468e-05	1.035858e-03	2.240369e-06	1.804689e-06
91            	2.053066e-02	2.037571e-03	2.757027e-05	1.032377e-03	2.274844e-06	1.832596e-06
92            	2.038361e-02	1.988476e-03	2.703218e-05	1.029099e-03	1.605599e-06	1.293654e-06
93            	2.043497e-02	1.940200e-03	2.652089e-05	1.025809e-03	1.629202e-06	1.312222e-06
94            	2.043858e-02	1.894171e-03	2.600903e-05	1.022837e-03	1.886548e-06	1.518561e-06
95            	2.043401e-02	1.849848e-03	2.551809e-05	1.020244e-03	2.053328e-06	1.650973e-06
96            	2.041152e-02	1.806640e-03	2.503423e-05	1.016638e-03	1.777986e-06	1.427987e-06
97            	2.046342e-02	1.764713e-03	2.457041e-05	1.013420e-03	1.365695e-06	1.095169e-06
98            	2.043869e-02	1.723868e-03	2.411044e-05	1.009448e-03	1.549500e-06	1.240273e-06
99            	2.058793e-02	1.684170e-03	2.366651e-05	1.005787e-03	1.860494e-06	1.485848e-06
100           	2.060870e-02	1.647229e-03	2.322435e-05	1.002005e-03	1.924602e-06	1.533391e-06
101           	2.068919e-02	1.610599e-03	2.279544e-05	9.985696e-04	1.421798e-06	1.129941e-06
102           	2.077087e-02	1.575354e-03	2.236933e-05	9.948693e-04	1.325158e-06	1.050249e-06
103           	2.071332e-02	1.542100e-03	2.196099e-05	9.908315e-04	1.544345e-06	1.220109e-06
104           	2.070779e-02	1.508739e-03	2.155959e-05	9.869965e-04	1.735840e-06	1.367184e-06
105           	2.076312e-02	1.476175e-03	2.116827e-05	9.830443e-04	1.607154e-06	1.261652e-06
106           	2.097658e-02	1.443557e-03	2.078129e-05	9.785482e-04	1.180741e-06	9.238164e-07
107           	2.096599e-02	1.412436e-03	2.040331e-05	9.742944e-04	1.299195e-06	1.012922e-06
108           	2.107438e-02	1.381748e-03	2.003021e-05	9.700911e-04	1.535164e-06	1.192416e-06
109           	2.117647e-02	1.352020e-03	1.966766e-05	9.659226e-04	1.625097e-06	1.257396e-06
110           	2.115358e-02	1.323509e-03	1.930944e-05	9.616618e-04	1.299264e-06	1.001453e-06
111           	2.113754e-02	1.295562e-03	1.896112e-05	9.573452e-04	1.093482e-06	8.394552e-07
112           	2.122334e-02	1.268695e-03	1.861771e-05	9.527452e-04	1.280530e-06	9.788772e-07
113           	2.131980e-02	1.242647e-03	1.828343e-05	9.484266e-04	1.471200e-06	1.119905e-06
114           	2.130795e-02	1.216465e-03	1.795436e-05	9.445105e-04	1.425478e-06	1.080350e-06
115           	2.147005e-02	1.191149e-03	1.763169e-05	9.407408e-04	1.053327e-06	7.949381e-07
116           	2.149913e-02	1.165739e-03	1.731240e-05	9.362501e-04	1.081900e-06	8.128285e-07
117           	2.160061e-02	1.141103e-03	1.699953e-05	9.322968e-04	1.263295e-06	9.450074e-07
118           	2.164455e-02	1.116682e-03	1.669098e-05	9.282355e-04	1.378805e-06	1.026760e-06
119           	2.171028e-02	1.093208e-03	1.638837e-05	9.246402e-04	1.136610e-06	8.427877e-07
120           	2.185633e-02	1.070567e-03	1.609146e-05	9.206589e-04	9.077945e-07	6.702834e-07
121           	2.197313e-02	1.047533e-03	1.580175e-05	9.161262e-04	1.049716e-06	7.662628e-07
122           	2.203255e-02	1.025298e-03	1.551500e-05	9.120775e-04	1.240415e-06	9.021517e-07
123           	2.201697e-02	1.003059e-03	1.523284e-05	9.082333e-04	1.251011e-06	9.076406e-07
124           	2.198700e-02	9.818598e-04	1.495714e-05	9.045270e-04	9.366196e-07	6.773032e-07
125           	2.218844e-02	9.611150e-04	1.468579e-05	9.006211e-04	8.691878e-07	6.212095e-07
126           	2.217603e-02	9.471994e-04	1.441203e-05	8.954839e-04	1.029970e-06	7.282041e-07
127           	2.226050e-02	9.335735e-04	1.414277e-05	8.907616e-04	1.163434e-06	8.213127e-07
128           	2.240262e-02	9.176248e-04	1.388404e-05	8.864254e-04	1.016584e-06	7.166095e-07
129           	2.256096e-02	8.983722e-04	1.363435e-05	8.831291e-04	7.746007e-07	5.409822e-07
130           	2.251990e-02	8.785383e-04	1.338880e-05	8.806754e-04	8.609838e-07	6.011749e-07
131           	2.258606e-02	8.593072e-04	1.314367e-05	8.779691e-04	1.049476e-06	7.380320e-07
132           	2.263118e-02	8.423940e-04	1.290427e-05	8.744969e-04	1.079516e-06	7.578244e-07
133           	2.273936e-02	8.267706e-04	1.266786e-05	8.705749e-04	8.293021e-07	5.769082e-07
134           	2.284919e-02	8.123202e-04	1.243471e-05	8.670240e-04	7.170380e-07	4.986034e-07
135           	2.293479e-02	7.971142e-04	1.220439e-05	8.633539e-04	8.552651e-07	5.949449e-07
136           	2.302025e-02	7.819192e-04	1.197888e-05	8.599548e-04	1.005224e-06	7.049222e-07
137           	2.315408e-02	7.663370e-04	1.175831e-05	8.562791e-04	9.310369e-07	6.514701e-07
138           	2.331173e-02	7.514885e-04	1.154411e-05	8.522860e-04	6.636129e-07	4.565693e-07
139           	2.333953e-02	7.367387e-04	1.132920e-05	8.486953e-04	6.974048e-07	4.798287e-07
140           	2.349858e-02	7.228442e-04	1.111834e-05	8.444374e-04	8.446672e-07	5.822557e-07
141           	2.357088e-02	7.091420e-04	1.091111e-05	8.404305e-04	9.310944e-07	6.471831e-07
142           	2.365150e-02	6.959582e-04	1.071251e-05	8.356006e-04	7.129026e-07	4.874859e-07
143           	2.378553e-02	6.828637e-04	1.051600e-05	8.308143e-04	5.752195e-07	3.936585e-07
144           	2.394822e-02	6.701403e-04	1.032338e-05	8.265574e-04	6.783360e-07	4.647431e-07
145           	2.400623e-02	6.575658e-04	1.013372e-05	8.219954e-04	8.331683e-07	5.715532e-07
146           	2.427129e-02	6.452068e-04	9.946785e-06	8.172905e-04	8.360382e-07	5.738238e-07
147           	2.451649e-02	6.328751e-04	9.762841e-06	8.122431e-04	5.784146e-07	3.971055e-07
148           	2.648432e-02	6.212438e-04	9.582720e-06	8.070991e-04	5.478438e-07	3.753090e-07
149           	2.691550e-02	6.065382e-04	9.388824e-06	7.803863e-04	6.560316e-07	4.439067e-07
150           	2.563250e-02	5.920978e-04	9.212316e-06	7.480288e-04	7.460324e-07	5.052851e-07
151           	2.408817e-02	5.793690e-04	9.046355e-06	7.256061e-04	6.179112e-07	4.192454e-07
152           	2.315891e-02	5.687756e-04	8.876890e-06	7.144088e-04	4.623331e-07	3.095906e-07
153           	2.277351e-02	5.604898e-04	8.733931e-06	7.193803e-04	5.256621e-07	3.590418e-07
154           	2.263014e-02	5.525386e-04	8.599249e-06	7.265635e-04	6.486562e-07	4.363962e-07
155           	2.258805e-02	5.432921e-04	8.456441e-06	7.267001e-04	7.041408e-07	4.734830e-07
156           	2.231265e-02	5.327513e-04	8.296561e-06	7.162237e-04	4.880659e-07	3.235944e-07
157           	2.213370e-02	5.223959e-04	8.150873e-06	7.050016e-04	4.347171e-07	2.900846e-07
158           	2.201670e-02	5.123527e-04	8.007917e-06	6.936978e-04	5.220358e-07	3.552086e-07
159           	2.198419e-02	5.031009e-04	7.872240e-06	6.844389e-04	6.204467e-07	4.158484e-07
160           	2.186707e-02	4.945918e-04	7.737828e-06	6.781511e-04	5.790373e-07	3.876071e-07
161           	2.183213e-02	4.864134e-04	7.606095e-06	6.740325e-04	3.966393e-07	2.615661e-07
162           	2.186519e-02	4.778007e-04	7.462389e-06	6.670912e-04	4.284395e-07	2.843232e-07
163           	2.208391e-02	4.698179e-04	7.340355e-06	6.639212e-04	5.320659e-07	3.599921e-07
164           	2.214295e-02	4.618958e-04	7.224501e-06	6.586914e-04	5.826097e-07	3.879753e-07
165           	2.223830e-02	4.539036e-04	7.104734e-06	6.519915e-04	4.392221e-07	2.881225e-07
166           	2.222920e-02	4.453885e-04	6.968772e-06	6.425988e-04	3.553635e-07	2.346567e-07
167           	2.246608e-02	4.378209e-04	6.851662e-06	6.373248e-04	4.281462e-07	2.843343e-07
168           	2.247146e-02	4.304627e-04	6.736730e-06	6.323218e-04	5.310242e-07	3.597021e-07
169           	2.270260e-02	4.231891e-04	6.625602e-06	6.267380e-04	5.387877e-07	3.587205e-07
170           	2.281042e-02	4.157227e-04	6.503646e-06	6.184236e-04	3.525718e-07	2.278666e-07
171           	2.304372e-02	4.089795e-04	6.395424e-06	6.147413e-04	3.503125e-07	2.280633e-07
172           	2.308989e-02	4.022077e-04	6.277866e-06	6.083584e-04	4.334914e-07	2.844782e-07
173           	2.333477e-02	3.956544e-04	6.178384e-06	6.055594e-04	5.067862e-07	3.346903e-07
174           	2.351565e-02	3.889492e-04	6.078075e-06	6.016135e-04	4.248603e-07	2.820069e-07
175           	2.377677e-02	3.818594e-04	5.965016e-06	5.939169e-04	3.111878e-07	2.075462e-07
176           	2.393655e-02	3.750486e-04	5.858264e-06	5.865065e-04	3.551567e-07	2.319885e-07
177           	2.411485e-02	3.688317e-04	5.765429e-06	5.842763e-04	4.485449e-07	2.949295e-07
178           	2.427369e-02	3.623841e-04	5.661345e-06	5.788089e-04	4.985755e-07	3.301996e-07
179           	2.451011e-02	3.560724e-04	5.560918e-06	5.738807e-04	3.350840e-07	2.232205e-07
180           	2.481873e-02	3.504290e-04	5.473800e-06	5.726670e-04	2.956104e-07	1.976273e-07
181           	2.519981e-02	3.440663e-04	5.374272e-06	5.675552e-04	3.584029e-07	2.342256e-07
182           	2.521841e-02	3.376568e-04	5.274736e-06	5.629785e-04	4.313904e-07	2.837752e-07
183           	2.539060e-02	3.317354e-04	5.182274e-06	5.589330e-04	4.082197e-07	2.704423e-07
184           	2.545246e-02	3.262262e-04	5.104652e-06	5.574216e-04	2.803924e-07	1.812617e-07
185           	2.568510e-02	3.206177e-04	5.009363e-06	5.513292e-04	3.098997e-07	2.104053e-07
186           	2.579173e-02	3.152139e-04	4.923461e-06	5.439771e-04	3.815722e-07	2.526633e-07
187           	2.595587e-02	3.100887e-04	4.836381e-06	5.385997e-04	4.224928e-07	2.811110e-07
188           	2.618425e-02	3.048837e-04	4.752387e-06	5.347362e-04	3.076403e-07	2.057390e-07
189           	2.643829e-02	3.001623e-04	4.680318e-06	5.340831e-04	2.531365e-07	1.605961e-07
190           	2.635206e-02	2.949966e-04	4.592166e-06	5.295888e-04	3.115169e-07	2.078983e-07
191           	2.635638e-02	2.898820e-04	4.513621e-06	5.224184e-04	3.773844e-07	2.463355e-07
192           	2.652876e-02	2.850080e-04	4.435857e-06	5.164509e-04	3.878416e-07	2.548706e-07
193           	2.663952e-02	2.803866e-04	4.359508e-06	5.118524e-04	2.540095e-07	1.630269e-07
194           	2.705801e-02	2.761052e-04	4.280370e-06	5.102858e-04	2.669450e-07	1.748287e-07
195           	2.741353e-02	2.717842e-04	4.202560e-06	5.091473e-04	3.295716e-07	2.267654e-07
196           	2.725984e-02	2.678028e-04	4.130793e-06	5.076792e-04	3.689524e-07	2.540903e-07
197           	2.743968e-02	2.632060e-04	4.060347e-06	5.055739e-04	2.907431e-07	2.002085e-07
198           	2.720437e-02	2.586247e-04	3.991182e-06	5.029204e-04	2.149487e-07	1.396456e-07
199           	2.687047e-02	2.535144e-04	3.916786e-06	5.007539e-04	2.626638e-07	1.738202e-07
200           	2.629889e-02	2.483760e-04	3.844904e-06	4.985173e-04	3.294434e-07	2.291876e-07
201           	2.588194e-02	2.434842e-04	3.779807e-06	4.954589e-04	3.493339e-07	2.433500e-07
202           	2.515133e-02	2.391338e-04	3.714957e-06	4.930285e-04	2.301657e-07	1.553543e-07
203           	2.469932e-02	2.352145e-04	3.646438e-06	4.916299e-04	2.149511e-07	1.470806e-07
204           	2.407626e-02	2.313039e-04	3.578290e-06	4.896819e-04	2.679659e-07	1.860674e-07
205           	2.362172e-02	2.276569e-04	3.512021e-06	4.874579e-04	3.173604e-07	2.307943e-07
206           	2.291826e-02	2.241711e-04	3.452696e-06	4.839740e-04	2.766447e-07	1.950712e-07
207           	2.254471e-02	2.209700e-04	3.393183e-06	4.805441e-04	1.879068e-07	1.247887e-07
208           	2.187468e-02	2.175903e-04	3.328966e-06	4.786054e-04	2.142631e-07	1.444666e-07
209           	2.158883e-02	2.140493e-04	3.266326e-06	4.767918e-04	2.651983e-07	1.876194e-07
210           	2.092674e-02	2.102970e-04	3.209491e-06	4.734912e-04	2.834594e-07	1.950163e-07
211           	2.069786e-02	2.066080e-04	3.153690e-06	4.709684e-04	2.033043e-07	1.319439e-07
212           	2.018639e-02	2.027735e-04	3.093229e-06	4.691821e-04	1.740118e-07	1.148445e-07
213           	1.990266e-02	1.993254e-04	3.037990e-06	4.671110e-04	2.180370e-07	1.395397e-07
214           	1.940280e-02	1.960797e-04	2.980217e-06	4.651569e-04	2.707303e-07	1.770118e-07
215           	1.917230e-02	1.928819e-04	2.924434e-06	4.638443e-04	2.739839e-07	1.828448e-07
216           	1.870966e-02	1.896507e-04	2.869381e-06	4.617859e-04	1.812899e-07	1.232946e-07
217           	1.841720e-02	1.866383e-04	2.816240e-06	4.603681e-04	1.874808e-07	1.296828e-07
218           	1.782064e-02	1.834792e-04	2.762457e-06	4.577790e-04	2.332077e-07	1.640072e-07
219           	1.765708e-02	1.806845e-04	2.711160e-06	4.569147e-04	2.543621e-07	1.877147e-07
220           	1.692286e-02	1.775956e-04	2.663405e-06	4.535397e-04	1.939374e-07	1.345056e-07
221           	1.671378e-02	1.747034e-04	2.612240e-06	4.530204e-04	1.489665e-07	1.047215e-07
222           	1.615529e-02	1.716978e-04	2.562622e-06	4.495716e-04	1.788940e-07	1.216108e-07
223           	1.592481e-02	1.688988e-04	2.515281e-06	4.480439e-04	2.286711e-07	1.508849e-07
224           	1.546474e-02	1.660016e-04	2.465329e-06	4.450353e-04	2.469893e-07	1.665153e-07
225           	1.534494e-02	1.632973e-04	2.418068e-06	4.439710e-04	1.595819e-07	1.097843e-07
226           	1.470018e-02	1.605380e-04	2.373581e-06	4.404992e-04	1.508739e-07	1.005680e-07
227           	1.446096e-02	1.579402e-04	2.330105e-06	4.389062e-04	1.867799e-07	1.210071e-07
228           	1.397602e-02	1.553217e-04	2.284048e-06	4.364155e-04	2.191811e-07	1.454022e-07
229           	1.385892e-02	1.528361e-04	2.239582e-06	4.354890e-04	1.924287e-07	1.305014e-07
230           	1.337368e-02	1.502908e-04	2.195552e-06	4.329673e-04	1.410295e-07	9.181308e-08
231           	1.331389e-02	1.478329e-04	2.147362e-06	4.332388e-04	1.660672e-07	1.207020e-07
232           	1.264895e-02	1.454744e-04	2.112707e-06	4.314561e-04	2.041313e-07	1.432919e-07
233           	1.247887e-02	1.430335e-04	2.070207e-06	4.278730e-04	2.223641e-07	1.590072e-07
234           	1.205300e-02	1.406281e-04	2.028301e-06	4.238358e-04	1.491071e-07	1.087330e-07
235           	1.185924e-02	1.382320e-04	1.989507e-06	4.211821e-04	1.339431e-07	8.882642e-08
236           	1.149814e-02	1.359632e-04	1.944145e-06	4.205646e-04	1.692182e-07	1.249327e-07
237           	1.126036e-02	1.338146e-04	1.912890e-06	4.202825e-04	1.967585e-07	1.412199e-07
238           	1.095477e-02	1.315037e-04	1.873905e-06	4.164807e-04	1.849220e-07	1.356549e-07
239           	1.077957e-02	1.292388e-04	1.836479e-06	4.135517e-04	1.270168e-07	8.897176e-08
240           	1.054450e-02	1.443898e-04	1.807099e-06	4.707677e-04	2.355829e-09	1.760494e-09
241           	1.039725e-02	2.803147e-04	1.839108e-06	1.636730e-03	5.535879e-08	3.890605e-08
242           	1.018666e-02	1.366557e-04	1.717538e-06	5.169962e-04	1.428846e-07	1.035784e-07
243           	1.004603e-02	1.219911e-04	1.682841e-06	4.118431e-04	1.886010e-07	1.336318e-07
244           	9.582590e-03	1.187702e-04	1.647197e-06	3.994924e-04	1.993731e-07	1.455202e-07
245           	9.330424e-03	1.165439e-04	1.615203e-06	3.977898e-04	5.738036e-08	4.021751e-08
246           	9.116828e-03	1.156104e-04	1.585328e-06	3.992562e-04	1.514517e-07	1.093345e-07
247           	8.815843e-03	1.121348e-04	1.558633e-06	3.938898e-04	1.261507e-07	8.375059e-08
248           	8.648149e-03	1.099604e-04	1.522730e-06	3.931972e-04	1.505936e-07	1.139729e-07
249           	8.394738e-03	1.080160e-04	1.496791e-06	3.888537e-04	1.765578e-07	1.309424e-07
250           	8.012419e-03	1.060777e-04	1.468642e-06	3.843518e-04	1.747204e-07	1.265203e-07
251           	7.749344e-03	1.041950e-04	1.440858e-06	3.806444e-04	1.207042e-07	7.982532e-08
252           	7.470808e-03	1.024090e-04	1.402863e-06	3.792865e-04	1.247358e-07	9.511920e-08
253           	7.315916e-03	1.006341e-04	1.372770e-06	3.794878e-04	1.518534e-07	1.271242e-07
254           	7.040961e-03	9.884568e-05	1.350841e-06	3.751063e-04	1.650308e-07	1.338783e-07
255           	6.679871e-03	9.704926e-05	1.328819e-06	3.705793e-04	1.349613e-07	1.040080e-07
256           	6.398945e-03	9.519675e-05	1.303841e-06	3.664578e-04	9.792340e-08	6.992602e-08
257           	6.160033e-03	9.340765e-05	1.273253e-06	3.629345e-04	1.067574e-07	7.349669e-08
258           	5.967123e-03	9.173293e-05	1.243382e-06	3.637665e-04	1.212550e-07	1.729977e-07
259           	5.721882e-03	9.009231e-05	1.222336e-06	3.599018e-04	1.420060e-07	1.931593e-07
260           	5.484184e-03	8.847639e-05	1.200252e-06	3.555552e-04	1.501591e-07	1.761466e-07
261           	5.240016e-03	8.688850e-05	1.178976e-06	3.517523e-04	1.047474e-07	7.877234e-08
262           	5.053976e-03	8.533234e-05	1.150987e-06	3.506764e-04	9.077634e-08	2.558260e-07
263           	4.846552e-03	8.375139e-05	1.133025e-06	3.454593e-04	8.796816e-08	3.522161e-07
264           	4.696058e-03	8.216487e-05	1.113206e-06	3.409562e-04	8.712698e-08	5.903269e-07
265           	4.523715e-03	8.059632e-05	1.094056e-06	3.374021e-04	8.745312e-08	9.719703e-07
266           	4.358922e-03	7.907567e-05	1.073874e-06	3.347065e-04	8.887906e-08	1.529891e-06
267           	4.196581e-03	7.766797e-05	1.055631e-06	3.325176e-04	9.034641e-08	2.223701e-06
268           	4.009384e-03	7.628379e-05	1.036462e-06	3.294773e-04	9.357871e-08	1.876663e-06
269           	3.827846e-03	7.495937e-05	1.019133e-06	3.263778e-04	9.617482e-08	7.371134e-06
270           	3.654186e-03	7.365426e-05	1.000734e-06	3.229981e-04	1.008080e-07	3.472633e-06
271           	4.992795e-03	7.245292e-05	9.794755e-07	3.219636e-04	1.128634e-07	2.869671e-06
272           	5.278553e-03	6.973663e-05	9.701828e-07	2.549036e-04	1.298589e-07	8.664751e-07
273           	4.499477e-03	6.725120e-05	9.574978e-07	1.858320e-04	1.173711e-07	2.243317e-06
274           	3.616139e-03	6.540770e-05	9.440755e-07	1.526101e-04	7.690241e-08	3.277821e-07
275           	3.318578e-03	6.399949e-05	9.322672e-07	1.457260e-04	7.836560e-08	4.858898e-08
276           	3.048601e-03	6.295816e-05	9.203611e-07	1.591767e-04	8.198670e-08	5.027349e-08
277           	2.623606e-03	6.219244e-05	9.107677e-07	1.854015e-04	8.554349e-08	5.195019e-08
278           	2.423832e-03	6.144941e-05	9.034876e-07	2.051054e-04	8.914106e-08	5.361591e-08
279           	2.490523e-03	6.050601e-05	8.977400e-07	2.068864e-04	9.269553e-08	5.525846e-08
280           	2.437963e-03	5.929369e-05	8.910541e-07	1.935401e-04	9.625079e-08	5.686790e-08
281           	2.273913e-03	5.797119e-05	8.832025e-07	1.773483e-04	9.972699e-08	5.844027e-08
282           	2.115188e-03	5.668393e-05	8.743248e-07	1.670218e-04	1.031873e-07	5.997239e-08
283           	2.045593e-03	5.564036e-05	8.607980e-07	1.666422e-04	1.088786e-07	4.730219e-07
284           	1.996034e-03	5.462990e-05	8.524544e-07	1.707005e-04	1.286821e-07	4.987359e-07
285           	1.978618e-03	5.369775e-05	8.443818e-07	1.758199e-04	1.376171e-07	3.539879e-07
286           	1.953353e-03	5.278658e-05	8.363213e-07	1.783508e-04	9.736518e-08	1.148459e-07
287           	1.924385e-03	5.180381e-05	8.306069e-07	1.762515e-04	9.797868e-08	4.111207e-08
288           	1.901996e-03	5.085394e-05	8.222669e-07	1.734351e-04	1.016856e-07	4.275041e-08
289           	1.884103e-03	4.997457e-05	8.115334e-07	1.715683e-04	8.063202e-08	3.568227e-07
290           	1.850597e-03	4.899104e-05	8.058182e-07	1.673834e-04	7.845941e-08	5.480318e-07
291           	1.839871e-03	4.804302e-05	7.996949e-07	1.651790e-04	7.731812e-08	9.895057e-07
292           	1.820102e-03	4.715939e-05	7.928369e-07	1.644979e-04	7.677971e-08	1.797240e-06
293           	1.814939e-03	4.632562e-05	7.857030e-07	1.645245e-04	7.700055e-08	3.182064e-06
294           	1.788349e-03	4.553735e-05	7.774981e-07	1.636951e-04	7.786707e-08	5.247429e-06
295           	1.783885e-03	4.473107e-05	7.707174e-07	1.632724e-04	7.990404e-08	7.054541e-06
296           	1.762882e-03	4.392487e-05	7.636775e-07	1.620350e-04	8.292909e-08	3.855841e-06
297           	1.756769e-03	4.314390e-05	7.562396e-07	1.600768e-04	8.074234e-08	3.028404e-05
298           	1.755795e-03	4.235097e-05	7.499412e-07	1.591998e-04	8.380672e-08	5.422867e-06
299           	1.740466e-03	4.158301e-05	7.436931e-07	1.584676e-04	8.313077e-08	8.312411e-06
300           	1.756032e-03	4.085964e-05	7.364340e-07	1.571245e-04	8.720715e-08	9.107939e-06
301           	1.751627e-03	4.013793e-05	7.303385e-07	1.569064e-04	8.572038e-08	1.180257e-05
302           	1.755910e-03	3.945793e-05	7.231640e-07	1.559824e-04	8.992985e-08	7.021593e-06
303           	1.750607e-03	3.876970e-05	7.171844e-07	1.560026e-04	9.153635e-08	1.116172e-05
304           	1.754304e-03	3.811441e-05	7.100452e-07	1.550438e-04	9.442927e-08	1.427300e-05
305           	1.763831e-03	3.745449e-05	7.041938e-07	1.549044e-04	9.883159e-08	9.770871e-06
306           	1.765363e-03	3.682626e-05	6.972423e-07	1.538359e-04	9.660134e-08	3.995323e-05
307           	1.776238e-03	3.619515e-05	6.913868e-07	1.535744e-04	1.027532e-07	1.178569e-05
308           	1.832193e-03	3.565858e-05	6.807029e-07	1.546092e-04	1.136909e-07	8.191484e-06
309           	1.918148e-03	3.506004e-05	6.724787e-07	1.553521e-04	1.339265e-07	3.945912e-06
310           	1.967780e-03	3.442245e-05	6.650518e-07	1.552959e-04	1.296162e-07	5.552684e-06
311           	1.956013e-03	3.378716e-05	6.583286e-07	1.546883e-04	8.422733e-08	7.457295e-07
312           	1.876380e-03	3.312672e-05	6.535777e-07	1.526265e-04	8.473679e-08	7.494978e-07
313           	1.863112e-03	3.257575e-05	6.479448e-07	1.507710e-04	8.628778e-08	1.325967e-06
314           	1.895584e-03	3.208983e-05	6.418007e-07	1.504025e-04	8.893021e-08	2.412650e-06
315           	1.901048e-03	3.164258e-05	6.356900e-07	1.507446e-04	9.385422e-08	4.259897e-06
316           	1.897062e-03	3.118666e-05	6.294295e-07	1.510313e-04	9.839160e-08	7.720714e-06
317           	1.897349e-03	3.071544e-05	6.235518e-07	1.506827e-04	1.037869e-07	1.104611e-05
318           	1.944687e-03	3.027312e-05	6.150170e-07	1.514489e-04	9.679230e-08	3.950379e-06
319           	1.969411e-03	2.973169e-05	6.098795e-07	1.492023e-04	9.411646e-08	1.154129e-05
320           	1.964652e-03	2.919677e-05	6.046118e-07	1.474476e-04	9.821122e-08	5.137764e-06
321           	1.973806e-03	2.872682e-05	5.995878e-07	1.465603e-04	9.990367e-08	6.768519e-06
322           	2.004436e-03	2.829658e-05	5.941778e-07	1.464679e-04	1.022330e-07	7.588637e-06
323           	2.013426e-03	2.796117e-05	5.862206e-07	1.483193e-04	1.139916e-07	9.221757e-06