# vtk DataFile Version 2.0
sampleSurface
ASCII
DATASET POLYDATA
POINTS 117 double
61.38 59.73 2.35
63.08 54.47 17.71
60.48 60.21 3.78
71.23 51.34 1.65
60.81 57.83 16.58
61.07 60.45 2
65.37 52.98 16
61.64 59.66 2.12
62.85 55 17.91
60.79 59.51 16.33
60.55 62.53 4.66
65.58 52.78 17.85
64.97 53.15 17.71
65.23 56.93 1.55
61.58 57.53 17.96
63.44 55.57 19.29
60.82 58.56 16.7
60.8 61.08 16.26
61.78 62.7 1.53
72.51 51.17 1.55
65.85 56.53 1.52
63.12 54.57 17.87
62.86 59.44 1.51
62.02 64.06 2.05
61.02 61.34 16.4
72.96 51.24 3.69
62.99 58.19 19.44
63.54 55.5 19.29
69.28 65.09 1.51
62.18 64.16 1.95
62.43 63.76 7.1
65.66 52.78 17.84
72.82 51.22 1.76
72.22 52.84 1.5
63.1 58.22 19.49
64.96 55.54 19.58
64.4 59.74 1.51
68.69 65.37 1.6
63.13 64.34 6.41
63.54 59.34 19.5
66.58 53.84 18.84
73.06 51.4 2.2
73.86 52.54 1.56
73.22 52.64 1.52
65.16 53.73 18.49
71.77 58.91 1.5
64.95 55.11 19.43
73.81 60.4 1.5
71.62 64.94 1.6
73.98 67.59 6.39
65.35 65.38 4.93
65.35 61.77 16.14
63.51 63.22 13.22
77.4 57.22 6.48
80.11 58.89 4.49
79.85 58.81 3.78
74.82 59.2 1.51
73.06 57.28 1.5
64.3 59.02 19.6
66.46 55.05 19.41
75.04 61.8 1.51
77.04 66.62 3.4
74.35 67.44 5.8
66.69 65.78 6.34
67.55 60.17 17.39
63.36 61.82 15.87
79.54 58.7 5.4
79.24 60.22 2.48
76.19 57.26 1.6
67.4 56.5 19.57
76.62 64.9 2.26
78.02 64.33 2.21
77.99 66.84 4.8
67.81 55.15 18.87
80.21 59.82 5.04
80.25 60.13 3.47
76.77 57.75 1.68
67.12 57.31 19.3
64.98 59.01 19.33
77.36 60.26 1.79
78.34 65.71 6.25
78.86 60.65 8.1
80.64 61.5 4.07
79.52 60.54 2.65
76.06 60.07 1.61
69.42 58.63 17.22
66.65 59.47 18.28
68.64 56.21 18.38
79.21 66.04 4.36
79.44 64.96 3.39
79.25 60.97 2.5
71.47 57.37 15.66
80.32 62 6.24
67.83 56.86 19.1
68.92 56.23 18.09
79.17 65.82 3.93
79.54 64.18 3.23
78.89 65.24 6.2
80.28 63.52 5.47
79.62 62.53 6.89
79.27 65.98 4.36
80.09 63.6 6.14
80.21 63.5 4.62
70.14 59 0
69.18 59 0
69.66 59.83 0
70.62 59.83 0
71.1 59 0
70.62 58.16 0
69.66 58.16 0
69.66 59.83 2.49
69.18 59 2.49
70.62 59.83 2.49
71.1 59 2.49
70.62 58.16 2.49
69.66 58.16 2.49
70.14 59 2.49

POLYGONS 226 904
3 0 1 2
3 0 3 1
3 2 1 4
3 2 5 0
3 3 6 1
3 3 0 7
3 8 4 1
3 4 9 2
3 10 5 2
3 7 0 5
3 6 3 11
3 1 6 12
3 3 7 13
3 14 4 8
3 1 15 8
3 16 9 4
3 2 9 17
3 18 5 10
3 17 10 2
3 13 7 5
3 11 3 19
3 6 11 12
3 12 11 1
3 13 20 3
3 4 14 16
3 15 14 8
3 21 15 1
3 17 9 16
3 22 5 18
3 18 10 23
3 10 17 24
3 5 22 13
3 25 11 19
3 19 3 20
3 1 11 21
3 13 22 20
3 16 14 17
3 15 26 14
3 15 21 27
3 28 22 18
3 23 29 18
3 30 23 10
3 24 17 26
3 10 24 30
3 25 31 11
3 32 25 19
3 19 20 33
3 27 21 11
3 20 22 33
3 17 14 26
3 34 26 15
3 27 35 15
3 28 36 22
3 18 37 28
3 18 29 37
3 29 23 38
3 30 38 23
3 39 24 26
3 24 38 30
3 40 11 31
3 40 31 25
3 41 25 32
3 19 42 32
3 33 43 19
3 11 44 27
3 45 33 22
3 35 34 15
3 26 34 39
3 35 27 46
3 22 36 45
3 36 28 47
3 37 48 28
3 49 37 29
3 38 50 29
3 51 24 39
3 24 52 38
3 44 11 40
3 40 25 53
3 54 25 41
3 41 32 54
3 55 32 42
3 19 43 42
3 33 56 43
3 46 27 44
3 57 33 45
3 58 34 35
3 39 34 58
3 46 59 35
3 36 47 45
3 47 28 60
3 48 37 61
3 28 48 60
3 50 49 29
3 37 49 62
3 63 50 38
3 39 64 51
3 51 65 24
3 52 24 65
3 38 52 63
3 46 44 40
3 53 66 40
3 53 25 66
3 66 25 54
3 32 55 54
3 55 42 67
3 68 42 43
3 56 68 43
3 56 33 47
3 47 33 57
3 45 47 57
3 35 69 58
3 58 64 39
3 69 35 59
3 40 59 46
3 60 56 47
3 61 37 62
3 70 48 61
3 71 60 48
3 50 63 49
3 62 49 72
3 51 64 49
3 49 65 51
3 65 49 52
3 49 63 52
3 40 66 73
3 66 54 74
3 54 55 75
3 42 76 67
3 55 67 75
3 76 42 68
3 60 68 56
3 58 69 77
3 58 78 64
3 59 73 69
3 40 73 59
3 62 72 61
3 71 48 70
3 70 61 71
3 79 60 71
3 49 80 72
3 64 80 49
3 66 81 73
3 74 54 82
3 74 81 66
3 54 75 82
3 67 76 79
3 83 75 67
3 68 79 76
3 84 68 60
3 85 77 69
3 77 78 58
3 86 64 78
3 73 87 69
3 88 61 72
3 61 89 71
3 71 90 79
3 60 79 84
3 88 72 80
3 85 80 64
3 73 81 91
3 82 92 74
3 74 92 81
3 75 83 82
3 79 90 67
3 83 67 90
3 79 68 84
3 69 93 85
3 85 64 77
3 78 77 86
3 77 64 86
3 87 73 94
3 91 69 87
3 95 61 88
3 89 61 95
3 71 89 96
3 71 96 90
3 88 80 97
3 80 85 97
3 91 81 93
3 94 73 91
3 98 92 82
3 92 99 81
3 82 83 96
3 90 96 83
3 85 93 81
3 93 69 91
3 91 87 94
3 88 100 95
3 95 100 89
3 96 89 82
3 97 100 88
3 97 85 101
3 82 102 98
3 101 92 98
3 101 99 92
3 81 99 85
3 89 100 102
3 82 89 102
3 101 100 97
3 85 99 101
3 98 102 100
3 98 100 101
3 103 104 105
3 103 105 106
3 103 106 107
3 103 107 108
3 103 108 109
3 103 109 104
3 104 110 105
3 104 111 110
3 105 112 106
3 105 110 112
3 106 113 107
3 106 112 113
3 107 114 108
3 107 113 114
3 108 115 109
3 108 114 115
3 109 111 104
3 109 115 111
3 116 110 111
3 116 112 110
3 116 113 112
3 116 114 113
3 116 115 114
3 116 111 115
CELL_DATA 226
FIELD attributes 1
zone 1 226 float
0 0 0 0 0 0 0 0 0 0
0 0 0 0 0 0 0 0 0 0
0 0 0 0 0 0 0 0 0 0
0 0 0 0 0 0 0 0 0 0
0 0 0 0 0 0 0 0 0 0
0 0 0 0 0 0 0 0 0 0
0 0 0 0 0 0 0 0 0 0
0 0 0 0 0 0 0 0 0 0
0 0 0 0 0 0 0 0 0 0
0 0 0 0 0 0 0 0 0 0
0 0 0 0 0 0 0 0 0 0
0 0 0 0 0 0 0 0 0 0
0 0 0 0 0 0 0 0 0 0
0 0 0 0 0 0 0 0 0 0
0 0 0 0 0 0 0 0 0 0
0 0 0 0 0 0 0 0 0 0
0 0 0 0 0 0 0 0 0 0
0 0 0 0 0 0 0 0 0 0
0 0 0 0 0 0 0 0 0 0
0 0 0 0 0 0 0 0 0 0
0 0 1 1 1 1 1 1 1 1
1 1 1 1 1 1 1 1 1 1
1 1 1 1 1 1
